   1   1   0   0
  0.5120000E+03  0.8000000E-09  0.8000000E-09  0.8000000E-09  0.5000000E-15
  1.000000000000000E-004
  CAR 
 O ATOM                                  
      3.14408542    -25.11564802  301     -8.88912751      1.00000000
    -25.116  0.0000E+00  0.0000E+00
    -25.021  0.0000E+00  0.0000E+00
    -24.927  0.0000E+00  0.0000E+00
    -24.833  0.0000E+00  0.0000E+00
    -24.739  0.0000E+00  0.0000E+00
    -24.645  0.0000E+00  0.0000E+00
    -24.550  0.0000E+00  0.0000E+00
    -24.456  0.0000E+00  0.0000E+00
    -24.362  0.0000E+00  0.0000E+00
    -24.268  0.0000E+00  0.0000E+00
    -24.174  0.0000E+00  0.0000E+00
    -24.079  0.0000E+00  0.0000E+00
    -23.985  0.0000E+00  0.0000E+00
    -23.891  0.0000E+00  0.0000E+00
    -23.797  0.2123E+02  0.2000E+01
    -23.703  0.0000E+00  0.2000E+01
    -23.608  0.0000E+00  0.2000E+01
    -23.514  0.0000E+00  0.2000E+01
    -23.420  0.0000E+00  0.2000E+01
    -23.326  0.0000E+00  0.2000E+01
    -23.232  0.0000E+00  0.2000E+01
    -23.137  0.0000E+00  0.2000E+01
    -23.043  0.0000E+00  0.2000E+01
    -22.949  0.0000E+00  0.2000E+01
    -22.855  0.0000E+00  0.2000E+01
    -22.761  0.0000E+00  0.2000E+01
    -22.666  0.0000E+00  0.2000E+01
    -22.572  0.0000E+00  0.2000E+01
    -22.478  0.0000E+00  0.2000E+01
    -22.384  0.0000E+00  0.2000E+01
    -22.290  0.0000E+00  0.2000E+01
    -22.195  0.0000E+00  0.2000E+01
    -22.101  0.0000E+00  0.2000E+01
    -22.007  0.0000E+00  0.2000E+01
    -21.913  0.0000E+00  0.2000E+01
    -21.819  0.0000E+00  0.2000E+01
    -21.724  0.0000E+00  0.2000E+01
    -21.630  0.0000E+00  0.2000E+01
    -21.536  0.0000E+00  0.2000E+01
    -21.442  0.0000E+00  0.2000E+01
    -21.348  0.0000E+00  0.2000E+01
    -21.253  0.0000E+00  0.2000E+01
    -21.159  0.0000E+00  0.2000E+01
    -21.065  0.0000E+00  0.2000E+01
    -20.971  0.0000E+00  0.2000E+01
    -20.877  0.0000E+00  0.2000E+01
    -20.782  0.0000E+00  0.2000E+01
    -20.688  0.0000E+00  0.2000E+01
    -20.594  0.0000E+00  0.2000E+01
    -20.500  0.0000E+00  0.2000E+01
    -20.406  0.0000E+00  0.2000E+01
    -20.311  0.0000E+00  0.2000E+01
    -20.217  0.0000E+00  0.2000E+01
    -20.123  0.0000E+00  0.2000E+01
    -20.029  0.0000E+00  0.2000E+01
    -19.935  0.0000E+00  0.2000E+01
    -19.840  0.0000E+00  0.2000E+01
    -19.746  0.0000E+00  0.2000E+01
    -19.652  0.0000E+00  0.2000E+01
    -19.558  0.0000E+00  0.2000E+01
    -19.464  0.0000E+00  0.2000E+01
    -19.370  0.0000E+00  0.2000E+01
    -19.275  0.0000E+00  0.2000E+01
    -19.181  0.0000E+00  0.2000E+01
    -19.087  0.0000E+00  0.2000E+01
    -18.993  0.0000E+00  0.2000E+01
    -18.899  0.0000E+00  0.2000E+01
    -18.804  0.0000E+00  0.2000E+01
    -18.710  0.0000E+00  0.2000E+01
    -18.616  0.0000E+00  0.2000E+01
    -18.522  0.0000E+00  0.2000E+01
    -18.428  0.0000E+00  0.2000E+01
    -18.333  0.0000E+00  0.2000E+01
    -18.239  0.0000E+00  0.2000E+01
    -18.145  0.0000E+00  0.2000E+01
    -18.051  0.0000E+00  0.2000E+01
    -17.957  0.0000E+00  0.2000E+01
    -17.862  0.0000E+00  0.2000E+01
    -17.768  0.0000E+00  0.2000E+01
    -17.674  0.0000E+00  0.2000E+01
    -17.580  0.0000E+00  0.2000E+01
    -17.486  0.0000E+00  0.2000E+01
    -17.391  0.0000E+00  0.2000E+01
    -17.297  0.0000E+00  0.2000E+01
    -17.203  0.0000E+00  0.2000E+01
    -17.109  0.0000E+00  0.2000E+01
    -17.015  0.0000E+00  0.2000E+01
    -16.920  0.0000E+00  0.2000E+01
    -16.826  0.0000E+00  0.2000E+01
    -16.732  0.0000E+00  0.2000E+01
    -16.638  0.0000E+00  0.2000E+01
    -16.544  0.0000E+00  0.2000E+01
    -16.449  0.0000E+00  0.2000E+01
    -16.355  0.0000E+00  0.2000E+01
    -16.261  0.0000E+00  0.2000E+01
    -16.167  0.0000E+00  0.2000E+01
    -16.073  0.0000E+00  0.2000E+01
    -15.978  0.0000E+00  0.2000E+01
    -15.884  0.0000E+00  0.2000E+01
    -15.790  0.0000E+00  0.2000E+01
    -15.696  0.0000E+00  0.2000E+01
    -15.602  0.0000E+00  0.2000E+01
    -15.507  0.0000E+00  0.2000E+01
    -15.413  0.0000E+00  0.2000E+01
    -15.319  0.0000E+00  0.2000E+01
    -15.225  0.0000E+00  0.2000E+01
    -15.131  0.0000E+00  0.2000E+01
    -15.036  0.0000E+00  0.2000E+01
    -14.942  0.0000E+00  0.2000E+01
    -14.848  0.0000E+00  0.2000E+01
    -14.754  0.0000E+00  0.2000E+01
    -14.660  0.0000E+00  0.2000E+01
    -14.565  0.0000E+00  0.2000E+01
    -14.471  0.0000E+00  0.2000E+01
    -14.377  0.0000E+00  0.2000E+01
    -14.283  0.0000E+00  0.2000E+01
    -14.189  0.0000E+00  0.2000E+01
    -14.094  0.0000E+00  0.2000E+01
    -14.000  0.0000E+00  0.2000E+01
    -13.906  0.0000E+00  0.2000E+01
    -13.812  0.0000E+00  0.2000E+01
    -13.718  0.0000E+00  0.2000E+01
    -13.623  0.0000E+00  0.2000E+01
    -13.529  0.0000E+00  0.2000E+01
    -13.435  0.0000E+00  0.2000E+01
    -13.341  0.0000E+00  0.2000E+01
    -13.247  0.0000E+00  0.2000E+01
    -13.152  0.0000E+00  0.2000E+01
    -13.058  0.0000E+00  0.2000E+01
    -12.964  0.0000E+00  0.2000E+01
    -12.870  0.0000E+00  0.2000E+01
    -12.776  0.0000E+00  0.2000E+01
    -12.681  0.0000E+00  0.2000E+01
    -12.587  0.0000E+00  0.2000E+01
    -12.493  0.0000E+00  0.2000E+01
    -12.399  0.0000E+00  0.2000E+01
    -12.305  0.0000E+00  0.2000E+01
    -12.210  0.0000E+00  0.2000E+01
    -12.116  0.0000E+00  0.2000E+01
    -12.022  0.0000E+00  0.2000E+01
    -11.928  0.0000E+00  0.2000E+01
    -11.834  0.0000E+00  0.2000E+01
    -11.739  0.0000E+00  0.2000E+01
    -11.645  0.0000E+00  0.2000E+01
    -11.551  0.0000E+00  0.2000E+01
    -11.457  0.0000E+00  0.2000E+01
    -11.363  0.0000E+00  0.2000E+01
    -11.268  0.0000E+00  0.2000E+01
    -11.174  0.0000E+00  0.2000E+01
    -11.080  0.0000E+00  0.2000E+01
    -10.986  0.0000E+00  0.2000E+01
    -10.892  0.0000E+00  0.2000E+01
    -10.797  0.0000E+00  0.2000E+01
    -10.703  0.0000E+00  0.2000E+01
    -10.609  0.0000E+00  0.2000E+01
    -10.515  0.0000E+00  0.2000E+01
    -10.421  0.0000E+00  0.2000E+01
    -10.326  0.0000E+00  0.2000E+01
    -10.232  0.0000E+00  0.2000E+01
    -10.138  0.0000E+00  0.2000E+01
    -10.044  0.0000E+00  0.2000E+01
     -9.950  0.0000E+00  0.2000E+01
     -9.855  0.0000E+00  0.2000E+01
     -9.761  0.0000E+00  0.2000E+01
     -9.667  0.0000E+00  0.2000E+01
     -9.573  0.0000E+00  0.2000E+01
     -9.479  0.0000E+00  0.2000E+01
     -9.384  0.0000E+00  0.2000E+01
     -9.290  0.0000E+00  0.2000E+01
     -9.196  0.0000E+00  0.2000E+01
     -9.102  0.0000E+00  0.2000E+01
     -9.008  0.0000E+00  0.2000E+01
     -8.913  0.8541E-01  0.2008E+01
     -8.819  0.6361E+02  0.8000E+01
     -8.725  0.0000E+00  0.8000E+01
     -8.631  0.0000E+00  0.8000E+01
     -8.537  0.0000E+00  0.8000E+01
     -8.442  0.0000E+00  0.8000E+01
     -8.348  0.0000E+00  0.8000E+01
     -8.254  0.0000E+00  0.8000E+01
     -8.160  0.0000E+00  0.8000E+01
     -8.066  0.0000E+00  0.8000E+01
     -7.971  0.0000E+00  0.8000E+01
     -7.877  0.0000E+00  0.8000E+01
     -7.783  0.0000E+00  0.8000E+01
     -7.689  0.0000E+00  0.8000E+01
     -7.595  0.0000E+00  0.8000E+01
     -7.500  0.0000E+00  0.8000E+01
     -7.406  0.0000E+00  0.8000E+01
     -7.312  0.0000E+00  0.8000E+01
     -7.218  0.0000E+00  0.8000E+01
     -7.124  0.0000E+00  0.8000E+01
     -7.029  0.0000E+00  0.8000E+01
     -6.935  0.0000E+00  0.8000E+01
     -6.841  0.0000E+00  0.8000E+01
     -6.747  0.0000E+00  0.8000E+01
     -6.653  0.0000E+00  0.8000E+01
     -6.558  0.0000E+00  0.8000E+01
     -6.464  0.0000E+00  0.8000E+01
     -6.370  0.0000E+00  0.8000E+01
     -6.276  0.0000E+00  0.8000E+01
     -6.182  0.0000E+00  0.8000E+01
     -6.087  0.0000E+00  0.8000E+01
     -5.993  0.0000E+00  0.8000E+01
     -5.899  0.0000E+00  0.8000E+01
     -5.805  0.0000E+00  0.8000E+01
     -5.711  0.0000E+00  0.8000E+01
     -5.616  0.0000E+00  0.8000E+01
     -5.522  0.0000E+00  0.8000E+01
     -5.428  0.0000E+00  0.8000E+01
     -5.334  0.0000E+00  0.8000E+01
     -5.240  0.0000E+00  0.8000E+01
     -5.145  0.0000E+00  0.8000E+01
     -5.051  0.0000E+00  0.8000E+01
     -4.957  0.0000E+00  0.8000E+01
     -4.863  0.0000E+00  0.8000E+01
     -4.769  0.0000E+00  0.8000E+01
     -4.674  0.0000E+00  0.8000E+01
     -4.580  0.0000E+00  0.8000E+01
     -4.486  0.0000E+00  0.8000E+01
     -4.392  0.0000E+00  0.8000E+01
     -4.298  0.0000E+00  0.8000E+01
     -4.203  0.0000E+00  0.8000E+01
     -4.109  0.0000E+00  0.8000E+01
     -4.015  0.0000E+00  0.8000E+01
     -3.921  0.0000E+00  0.8000E+01
     -3.827  0.0000E+00  0.8000E+01
     -3.732  0.0000E+00  0.8000E+01
     -3.638  0.0000E+00  0.8000E+01
     -3.544  0.0000E+00  0.8000E+01
     -3.450  0.0000E+00  0.8000E+01
     -3.356  0.0000E+00  0.8000E+01
     -3.261  0.0000E+00  0.8000E+01
     -3.167  0.0000E+00  0.8000E+01
     -3.073  0.0000E+00  0.8000E+01
     -2.979  0.0000E+00  0.8000E+01
     -2.885  0.0000E+00  0.8000E+01
     -2.790  0.0000E+00  0.8000E+01
     -2.696  0.0000E+00  0.8000E+01
     -2.602  0.0000E+00  0.8000E+01
     -2.508  0.0000E+00  0.8000E+01
     -2.414  0.0000E+00  0.8000E+01
     -2.319  0.0000E+00  0.8000E+01
     -2.225  0.0000E+00  0.8000E+01
     -2.131  0.0000E+00  0.8000E+01
     -2.037  0.0000E+00  0.8000E+01
     -1.943  0.0000E+00  0.8000E+01
     -1.848  0.0000E+00  0.8000E+01
     -1.754  0.0000E+00  0.8000E+01
     -1.660  0.0000E+00  0.8000E+01
     -1.566  0.0000E+00  0.8000E+01
     -1.472  0.0000E+00  0.8000E+01
     -1.377  0.0000E+00  0.8000E+01
     -1.283  0.0000E+00  0.8000E+01
     -1.189  0.0000E+00  0.8000E+01
     -1.095  0.0000E+00  0.8000E+01
     -1.001  0.0000E+00  0.8000E+01
     -0.906  0.0000E+00  0.8000E+01
     -0.812  0.0000E+00  0.8000E+01
     -0.718  0.0000E+00  0.8000E+01
     -0.624  0.0000E+00  0.8000E+01
     -0.530  0.7072E-14  0.8000E+01
     -0.435  0.2123E+02  0.1000E+02
     -0.341  0.0000E+00  0.1000E+02
     -0.247  0.0000E+00  0.1000E+02
     -0.153  0.0000E+00  0.1000E+02
     -0.059  0.0000E+00  0.1000E+02
      0.036  0.0000E+00  0.1000E+02
      0.130  0.0000E+00  0.1000E+02
      0.224  0.0000E+00  0.1000E+02
      0.318  0.0000E+00  0.1000E+02
      0.412  0.0000E+00  0.1000E+02
      0.507  0.0000E+00  0.1000E+02
      0.601  0.0000E+00  0.1000E+02
      0.695  0.0000E+00  0.1000E+02
      0.789  0.0000E+00  0.1000E+02
      0.883  0.0000E+00  0.1000E+02
      0.978  0.0000E+00  0.1000E+02
      1.072  0.0000E+00  0.1000E+02
      1.166  0.0000E+00  0.1000E+02
      1.260  0.0000E+00  0.1000E+02
      1.354  0.0000E+00  0.1000E+02
      1.449  0.0000E+00  0.1000E+02
      1.543  0.0000E+00  0.1000E+02
      1.637  0.0000E+00  0.1000E+02
      1.731  0.0000E+00  0.1000E+02
      1.825  0.2699E-04  0.1000E+02
      1.919  0.4246E+02  0.1400E+02
      2.014  0.0000E+00  0.1400E+02
      2.108  0.0000E+00  0.1400E+02
      2.202  0.0000E+00  0.1400E+02
      2.296  0.0000E+00  0.1400E+02
      2.390  0.0000E+00  0.1400E+02
      2.485  0.0000E+00  0.1400E+02
      2.579  0.0000E+00  0.1400E+02
      2.673  0.0000E+00  0.1400E+02
      2.767  0.0000E+00  0.1400E+02
      2.861  0.0000E+00  0.1400E+02
      2.956  0.0000E+00  0.1400E+02
      3.050  0.0000E+00  0.1400E+02
      3.144  0.0000E+00  0.1400E+02
