    1    1    1    1
  0.5120000E+03  0.8000000E-09  0.8000000E-09  0.8000000E-09  0.5000000E-15
  1.000000000000000E-004
  CAR 
 O ATOM                                  
      6      1      7
 
  0.0000000E+00  0.0000000E+00  0.0000000E+00  0.1000000E+01
    1      -23.831115   1.000000
    2       -8.892173   0.666667
    3       -8.892173   0.666667
    4       -8.892173   0.666667
    5       -0.472550   0.000000
    6        1.859551   0.000000
    7        1.859552   0.000000
