       N       E                     dE             d eps       ncg     rms          rms(c)
DAV:   1    -0.215101389252E-01   -0.21510E-01   -0.91869E-05    14   0.676E-02    0.118E-02
DAV:   2    -0.215061517494E-01    0.39872E-05   -0.11779E-05    14   0.257E-02
   1 F= -.21506152E-01 E0= -.13793036E-01  d E =-.154262E-01
