<?xml version="1.0" encoding="ISO-8859-1"?>
<modeling>
 <generator>
  <i name="program" type="string">vasp </i>
  <i name="version" type="string">5.4.4.18Apr17-6-g9f103f2a35  </i>
  <i name="subversion" type="string">(build Feb 15 2019 16:11:45) complex            parallel </i>
  <i name="platform" type="string">LinuxIFC </i>
  <i name="date" type="string">2019 04 09 </i>
  <i name="time" type="string">22:04:59 </i>
 </generator>
 <incar>
  <i type="string" name="SYSTEM"> O ATOM</i>
  <i type="string" name="PREC">normal</i>
  <i type="int" name="ISMEAR">     0</i>
  <i name="SIGMA">      0.01000000</i>
  <v type="int" name="KPOINT_BSE">    -1     0     0     0</v>
 </incar>
 <structure name="primitive_cell" >
  <crystal>
   <varray name="basis" >
    <v>       8.00000000       0.00000000       0.00000000 </v>
    <v>       0.00000000       8.00000000       0.00000000 </v>
    <v>       0.00000000       0.00000000       8.00000000 </v>
   </varray>
   <i name="volume">    512.00000000 </i>
   <varray name="rec_basis" >
    <v>       0.12500000       0.00000000       0.00000000 </v>
    <v>       0.00000000       0.12500000       0.00000000 </v>
    <v>       0.00000000       0.00000000       0.12500000 </v>
   </varray>
  </crystal>
  <varray name="positions" >
   <v>       0.00000000       0.00000000       0.00000000 </v>
  </varray>
 </structure>
 <varray name="primitive_index" >
  <v type="int" >        1 </v>
 </varray>
 <kpoints>
  <generation param="Gamma">
   <v type="int" name="divisions">       1        1        1 </v>
   <v name="usershift">      0.00000000       0.00000000       0.00000000 </v>
   <v name="genvec1">      1.00000000       0.00000000       0.00000000 </v>
   <v name="genvec2">      0.00000000       1.00000000       0.00000000 </v>
   <v name="genvec3">      0.00000000       0.00000000       1.00000000 </v>
   <v name="shift">      0.00000000       0.00000000       0.00000000 </v>
  </generation>
  <varray name="kpointlist" >
   <v>       0.00000000       0.00000000       0.00000000 </v>
  </varray>
  <varray name="weights" >
   <v>       1.00000000 </v>
  </varray>
 </kpoints>
 <parameters>
  <separator name="general" >
   <i type="string" name="SYSTEM">O ATOM</i>
   <i type="logical" name="LCOMPAT"> F  </i>
  </separator>
  <separator name="electronic" >
   <i type="string" name="PREC">normal</i>
   <i name="ENMAX">    400.00000000</i>
   <i name="ENAUG">    605.39200000</i>
   <i name="EDIFF">      0.00010000</i>
   <i type="int" name="IALGO">    38</i>
   <i type="int" name="IWAVPR">    10</i>
   <i type="int" name="NBANDS">     7</i>
   <i name="NELECT">      6.00000000</i>
   <i type="int" name="TURBO">     0</i>
   <i type="int" name="IRESTART">     0</i>
   <i type="int" name="NREBOOT">     0</i>
   <i type="int" name="NMIN">     0</i>
   <i name="EREF">      0.00000000</i>
   <separator name="electronic smearing" >
    <i type="int" name="ISMEAR">     0</i>
    <i name="SIGMA">      0.01000000</i>
    <i name="KSPACING">      0.50000000</i>
    <i type="logical" name="KGAMMA"> T  </i>
   </separator>
   <separator name="electronic projectors" >
    <i type="logical" name="LREAL"> F  </i>
    <v name="ROPT">      0.00000000</v>
    <i type="int" name="LMAXPAW">  -100</i>
    <i type="int" name="LMAXMIX">     2</i>
    <i type="logical" name="NLSPLINE"> F  </i>
   </separator>
   <separator name="electronic startup" >
    <i type="int" name="ISTART">     1</i>
    <i type="int" name="ICHARG">     0</i>
    <i type="int" name="INIWAV">     1</i>
   </separator>
   <separator name="electronic spin" >
    <i type="int" name="ISPIN">     1</i>
    <i type="logical" name="LNONCOLLINEAR"> F  </i>
    <v name="MAGMOM">      1.00000000</v>
    <i name="NUPDOWN">     -1.00000000</i>
    <i type="logical" name="LSORBIT"> F  </i>
    <v name="SAXIS">      0.00000000      0.00000000      1.00000000</v>
    <i type="logical" name="LSPIRAL"> F  </i>
    <v name="QSPIRAL">      0.00000000      0.00000000      0.00000000</v>
    <i type="logical" name="LZEROZ"> F  </i>
   </separator>
   <separator name="electronic exchange-correlation" >
    <i type="logical" name="LASPH"> F  </i>
    <i type="logical" name="LMETAGGA"> F  </i>
   </separator>
   <separator name="electronic convergence" >
    <i type="int" name="NELM">    60</i>
    <i type="int" name="NELMDL">     0</i>
    <i type="int" name="NELMIN">     2</i>
    <i name="ENINI">    400.00000000</i>
    <separator name="electronic convergence detail" >
     <i type="logical" name="LDIAG"> T  </i>
     <i type="logical" name="LSUBROT"> F  </i>
     <i name="WEIMIN">      0.00000000</i>
     <i name="EBREAK">      0.00000357</i>
     <i name="DEPER">      0.30000000</i>
     <i type="int" name="NRMM">     4</i>
     <i name="TIME">      0.40000000</i>
    </separator>
   </separator>
   <separator name="electronic mixer" >
    <i name="AMIX">      0.40000000</i>
    <i name="BMIX">      1.00000000</i>
    <i name="AMIN">      0.10000000</i>
    <i name="AMIX_MAG">      1.60000000</i>
    <i name="BMIX_MAG">      1.00000000</i>
    <separator name="electronic mixer details" >
     <i type="int" name="IMIX">     4</i>
     <i type="logical" name="MIXFIRST"> F  </i>
     <i type="int" name="MAXMIX">   -45</i>
     <i name="WC">    100.00000000</i>
     <i type="int" name="INIMIX">     1</i>
     <i type="int" name="MIXPRE">     1</i>
     <i type="int" name="MREMOVE">     5</i>
    </separator>
   </separator>
   <separator name="electronic dipolcorrection" >
    <i type="logical" name="LDIPOL"> F  </i>
    <i type="logical" name="LMONO"> F  </i>
    <i type="int" name="IDIPOL">     0</i>
    <i name="EPSILON">      1.00000000</i>
    <v name="DIPOL">   -100.00000000   -100.00000000   -100.00000000</v>
    <i name="EFIELD">      0.00000000</i>
   </separator>
  </separator>
  <separator name="grids" >
   <i type="int" name="NGX">    40</i>
   <i type="int" name="NGY">    40</i>
   <i type="int" name="NGZ">    40</i>
   <i type="int" name="NGXF">    80</i>
   <i type="int" name="NGYF">    80</i>
   <i type="int" name="NGZF">    80</i>
   <i type="logical" name="ADDGRID"> F  </i>
  </separator>
  <separator name="ionic" >
   <i type="int" name="NSW">     0</i>
   <i type="int" name="IBRION">    -1</i>
   <i type="int" name="MDALGO">     0</i>
   <i type="int" name="ISIF">     2</i>
   <i name="PSTRESS">      0.00000000</i>
   <i name="EDIFFG">      0.00100000</i>
   <i type="int" name="NFREE">     0</i>
   <i name="POTIM">      0.50000000</i>
   <i name="SMASS">     -3.00000000</i>
   <i name="SCALEE">      1.00000000</i>
  </separator>
  <separator name="ionic md" >
   <i name="TEBEG">      0.00010000</i>
   <i name="TEEND">      0.00010000</i>
   <i type="int" name="NBLOCK">     1</i>
   <i type="int" name="KBLOCK">     1</i>
   <i type="int" name="NPACO">   256</i>
   <i name="APACO">     16.00000000</i>
  </separator>
  <separator name="symmetry" >
   <i type="int" name="ISYM">     2</i>
   <i name="SYMPREC">      0.00001000</i>
  </separator>
  <separator name="dos" >
   <i type="int" name="LORBIT">     0</i>
   <v name="RWIGS">     -1.00000000</v>
   <i type="int" name="NEDOS">   301</i>
   <i name="EMIN">     10.00000000</i>
   <i name="EMAX">    -10.00000000</i>
   <i name="EFERMI">      0.00000000</i>
  </separator>
  <separator name="writing" >
   <i type="int" name="NWRITE">     2</i>
   <i type="logical" name="LWAVE"> T  </i>
   <i type="logical" name="LDOWNSAMPLE"> F  </i>
   <i type="logical" name="LCHARG"> T  </i>
   <i type="logical" name="LPARD"> F  </i>
   <i type="logical" name="LVTOT"> F  </i>
   <i type="logical" name="LVHAR"> F  </i>
   <i type="logical" name="LELF"> F  </i>
   <i type="logical" name="LOPTICS"> F  </i>
   <v name="STM">      0.00000000      0.00000000      0.00000000      0.00000000      0.00000000      0.00000000      0.00000000</v>
  </separator>
  <separator name="performance" >
   <i type="int" name="NPAR">     1</i>
   <i type="int" name="NSIM">     4</i>
   <i type="int" name="NBLK">    -1</i>
   <i type="logical" name="LPLANE"> T  </i>
   <i type="logical" name="LSCALAPACK"> T  </i>
   <i type="logical" name="LSCAAWARE"> F  </i>
   <i type="logical" name="LSCALU"> F  </i>
   <i type="logical" name="LASYNC"> F  </i>
   <i type="logical" name="LORBITALREAL"> F  </i>
  </separator>
  <separator name="miscellaneous" >
   <i type="int" name="IDIOT">     3</i>
   <i type="int" name="ISPECIAL">     0</i>
   <i type="logical" name="LMUSIC"> F  </i>
   <v name="POMASS">     16.00000000</v>
   <v name="DARWINR">      0.00000000</v>
   <v name="DARWINV">      1.00000000</v>
   <i type="logical" name="LCORR"> T  </i>
  </separator>
  <i type="logical" name="GGA_COMPAT"> T  </i>
  <i type="logical" name="LBERRY"> F  </i>
  <i type="int" name="ICORELEVEL">     0</i>
  <i type="logical" name="LDAU"> F  </i>
  <i type="int" name="I_CONSTRAINED_M">     0</i>
  <separator name="electronic exchange-correlation" >
   <i type="string" name="GGA">--</i>
   <i type="int" name="VOSKOWN">     0</i>
   <i type="logical" name="LHFCALC"> F  </i>
   <i type="string" name="PRECFOCK"></i>
   <i type="logical" name="LSYMGRAD"> F  </i>
   <i type="logical" name="LHFONE"> F  </i>
   <i type="logical" name="LRHFCALC"> F  </i>
   <i type="logical" name="LTHOMAS"> F  </i>
   <i type="logical" name="LMODELHF"> F  </i>
   <i name="ENCUT4O">     -1.00000000</i>
   <i type="int" name="EXXOEP">     0</i>
   <i type="int" name="FOURORBIT">     0</i>
   <i name="AEXX">      0.00000000</i>
   <i name="HFALPHA">      0.00000000</i>
   <i name="MCALPHA">      0.00000000</i>
   <i name="ALDAX">      1.00000000</i>
   <i name="AGGAX">      1.00000000</i>
   <i name="ALDAC">      1.00000000</i>
   <i name="AGGAC">      1.00000000</i>
   <i type="int" name="NKREDX">     1</i>
   <i type="int" name="NKREDY">     1</i>
   <i type="int" name="NKREDZ">     1</i>
   <i type="logical" name="SHIFTRED"> F  </i>
   <i type="logical" name="ODDONLY"> F  </i>
   <i type="logical" name="EVENONLY"> F  </i>
   <i type="int" name="LMAXFOCK">     0</i>
   <i type="int" name="NMAXFOCKAE">     0</i>
   <i type="logical" name="LFOCKAEDFT"> F  </i>
   <i name="HFSCREEN">      0.00000000</i>
   <i name="HFSCREENC">      0.00000000</i>
   <i type="int" name="NBANDSGWLOW">     0</i>
  </separator>
  <separator name="vdW DFT" >
   <i type="logical" name="LUSE_VDW"> F  </i>
   <i name="Zab_VDW">     -0.84910000</i>
   <i name="PARAM1">      0.12340000</i>
   <i name="PARAM2">      1.00000000</i>
   <i name="PARAM3">      0.00000000</i>
  </separator>
  <separator name="model GW" >
   <i type="int" name="MODEL_GW">     0</i>
   <i name="MODEL_EPS0">    307.20000000</i>
   <i name="MODEL_ALPHA">      1.00000000</i>
  </separator>
  <separator name="linear response parameters" >
   <i type="logical" name="LEPSILON"> F  </i>
   <i type="logical" name="LRPA"> F  </i>
   <i type="logical" name="LNABLA"> F  </i>
   <i type="logical" name="LVEL"> F  </i>
   <i type="int" name="KINTER">     0</i>
   <i name="CSHIFT">      0.10000000</i>
   <i name="OMEGAMAX">     -1.00000000</i>
   <i name="DEG_THRESHOLD">      0.00200000</i>
   <i name="RTIME">     -0.10000000</i>
   <i name="WPLASMAI">      0.00000000</i>
   <v name="DFIELD">      0.00000000      0.00000000      0.00000000</v>
   <v name="WPLASMA">      0.00000000      0.00000000      0.00000000      0.00000000      0.00000000      0.00000000      0.00000000      0.00000000      0.00000000</v>
  </separator>
  <separator name="orbital magnetization" >
   <i type="logical" name="NUCIND"> F  </i>
   <v name="MAGPOS">      0.00000000      0.00000000      0.00000000</v>
   <i type="logical" name="LNICSALL"> T  </i>
   <i type="logical" name="ORBITALMAG"> F  </i>
   <i type="logical" name="LMAGBLOCH"> F  </i>
   <i type="logical" name="LCHIMAG"> F  </i>
   <i type="logical" name="LGAUGE"> T  </i>
   <i type="int" name="MAGATOM">     0</i>
   <v name="MAGDIPOL">      0.00000000      0.00000000      0.00000000</v>
   <v name="AVECCONST">      0.00000000      0.00000000      0.00000000</v>
  </separator>
  <separator name="response functions" >
   <i type="logical" name="LADDER"> F  </i>
   <i type="logical" name="LRPAFORCE"> F  </i>
   <i type="logical" name="LFXC"> F  </i>
   <i type="logical" name="LHARTREE"> T  </i>
   <i type="int" name="IBSE">     0</i>
   <v type="int" name="KPOINT">    -1     0     0     0</v>
   <i type="logical" name="LTCTE"> F  </i>
   <i type="logical" name="LTETE"> F  </i>
   <i type="logical" name="LTRIPLET"> F  </i>
   <i type="logical" name="LFXCEPS"> F  </i>
   <i type="logical" name="LFXHEG"> F  </i>
   <i type="int" name="NATURALO">     2</i>
   <i type="logical" name="L2ORDER"> F  </i>
   <i type="logical" name="LMP2LT"> F  </i>
   <i type="logical" name="LUSEW"> F  </i>
   <i name="ENCUTGW">     -2.00000000</i>
   <i name="ENCUTGWSOFT">     -2.00000000</i>
   <i name="ENCUTLF">     -1.00000000</i>
   <i type="int" name="LMAXMP2">    -1</i>
   <i name="SCISSOR">      0.00000000</i>
   <i type="int" name="NOMEGA">     0</i>
   <i type="int" name="NOMEGAR">     0</i>
   <i type="int" name="NBANDSGW">    -1</i>
   <i type="int" name="NBANDSO">    -1</i>
   <i type="int" name="NBANDSV">    -1</i>
   <i type="int" name="NELM">     1</i>
   <i type="int" name="NELMHF">     1</i>
   <i type="int" name="DIM">     3</i>
   <i type="int" name="ANTIRES">     0</i>
   <i name="OMEGAMAX">    -30.00000000</i>
   <i name="OMEGAMIN">    -30.00000000</i>
   <i name="OMEGATL">   -200.00000000</i>
   <i type="int" name="OMEGAGRID">   140</i>
   <i name="CSHIFT">     -0.10000000</i>
   <i type="logical" name="SELFENERGY"> F  </i>
   <i type="logical" name="LSPECTRAL"> F  </i>
   <i type="logical" name="LSPECTRALGW"> F  </i>
   <i type="logical" name="LSINGLES"> F  </i>
   <i type="logical" name="LFERMIGW"> F  </i>
   <i type="logical" name="ODDONLYGW"> F  </i>
   <i type="logical" name="EVENONLYGW"> F  </i>
   <i type="int" name="NKREDLFX">     1</i>
   <i type="int" name="NKREDLFY">     1</i>
   <i type="int" name="NKREDLFZ">     1</i>
   <i type="int" name="MAXMEM">  2800</i>
   <i type="int" name="TELESCOPE">     0</i>
   <i type="int" name="TAUPAR">     1</i>
   <i type="int" name="OMEGAPAR">    -1</i>
   <i name="LAMBDA">      1.00000000</i>
  </separator>
  <separator name="External order field" >
   <i name="OFIELD_KAPPA">      0.00000000</i>
   <v name="OFIELD_K">      0.00000000      0.00000000      0.00000000</v>
   <i name="OFIELD_Q6_NEAR">      0.00000000</i>
   <i name="OFIELD_Q6_FAR">      0.00000000</i>
   <i name="OFIELD_A">      0.00000000</i>
  </separator>
 </parameters>
 <atominfo>
  <atoms>       1 </atoms>
  <types>       1 </types>
  <array name="atoms" >
   <dimension dim="1">ion</dimension>
   <field type="string">element</field>
   <field type="int">atomtype</field>
   <set>
    <rc><c>O </c><c>   1</c></rc>
   </set>
  </array>
  <array name="atomtypes" >
   <dimension dim="1">type</dimension>
   <field type="int">atomspertype</field>
   <field type="string">element</field>
   <field>mass</field>
   <field>valence</field>
   <field type="string">pseudopotential</field>
   <set>
    <rc><c>   1</c><c>O </c><c>     16.00000000</c><c>      6.00000000</c><c>  PAW_PBE O 08Apr2002                   </c></rc>
   </set>
  </array>
 </atominfo>
 <structure name="initialpos" >
  <crystal>
   <varray name="basis" >
    <v>       8.00000000       0.00000000       0.00000000 </v>
    <v>       0.00000000       8.00000000       0.00000000 </v>
    <v>       0.00000000       0.00000000       8.00000000 </v>
   </varray>
   <i name="volume">    512.00000000 </i>
   <varray name="rec_basis" >
    <v>       0.12500000       0.00000000       0.00000000 </v>
    <v>       0.00000000       0.12500000       0.00000000 </v>
    <v>       0.00000000       0.00000000       0.12500000 </v>
   </varray>
  </crystal>
  <varray name="positions" >
   <v>       0.00000000       0.00000000       0.00000000 </v>
  </varray>
 </structure>
 <calculation>
  <scstep>
   <time name="dav">    0.11    0.13</time>
   <time name="total">    0.63    0.65</time>
   <energy>
    <i name="alphaZ">      0.27139542 </i>
    <i name="ewald">    -91.92708002 </i>
    <i name="hartreedc">   -281.70922706 </i>
    <i name="XCdc">     26.06103903 </i>
    <i name="pawpsdc">    358.58376550 </i>
    <i name="pawaedc">   -360.34524548 </i>
    <i name="eentropy">     -0.01542623 </i>
    <i name="bandstr">    -83.20392733 </i>
    <i name="atom">    432.26319604 </i>
    <i name="e_fr_energy">     -0.02151014 </i>
    <i name="e_wo_entrp">     -0.00608391 </i>
    <i name="e_0_energy">     -0.01379702 </i>
   </energy>
  </scstep>
  <scstep>
   <time name="dav">    0.11    0.11</time>
   <time name="total">    0.55    0.55</time>
   <energy>
    <i name="alphaZ">      0.27139542 </i>
    <i name="ewald">    -91.92708002 </i>
    <i name="hartreedc">   -281.68071070 </i>
    <i name="XCdc">     26.05906148 </i>
    <i name="pawpsdc">    358.54062379 </i>
    <i name="pawaedc">   -360.30164370 </i>
    <i name="eentropy">     -0.01542623 </i>
    <i name="bandstr">    -83.23092223 </i>
    <i name="atom">    432.26319604 </i>
    <i name="e_fr_energy">     -0.02150615 </i>
    <i name="e_wo_entrp">     -0.00607992 </i>
    <i name="e_0_energy">     -0.01379304 </i>
   </energy>
  </scstep>
  <structure>
   <crystal>
    <varray name="basis" >
     <v>       8.00000000       0.00000000       0.00000000 </v>
     <v>       0.00000000       8.00000000       0.00000000 </v>
     <v>       0.00000000       0.00000000       8.00000000 </v>
    </varray>
    <i name="volume">    512.00000000 </i>
    <varray name="rec_basis" >
     <v>       0.12500000       0.00000000       0.00000000 </v>
     <v>       0.00000000       0.12500000       0.00000000 </v>
     <v>       0.00000000       0.00000000       0.12500000 </v>
    </varray>
   </crystal>
   <varray name="positions" >
    <v>       0.00000000       0.00000000       0.00000000 </v>
   </varray>
  </structure>
  <varray name="forces" >
   <v>       0.00000000       0.00000000       0.00000000 </v>
  </varray>
  <varray name="stress" >
   <v>      -2.44823366       0.00000000      -0.00000000 </v>
   <v>       0.00000000      -2.44823366       0.00000000 </v>
   <v>       0.00000000      -0.00000000      -2.44823366 </v>
  </varray>
  <energy>
   <i name="e_fr_energy">     -0.02150615 </i>
   <i name="e_wo_entrp">     -0.01379304 </i>
   <i name="e_0_energy">     -0.01542623 </i>
  </energy>
  <time name="totalsc">    3.37    3.40</time>
  <eigenvalues>
   <array>
    <dimension dim="1">band</dimension>
    <dimension dim="2">kpoint</dimension>
    <dimension dim="3">spin</dimension>
    <field>eigene</field>
    <field>occ</field>
    <set>
     <set comment="spin 1">
      <set comment="kpoint 1">
       <r>  -23.8311    1.0000 </r>
       <r>   -8.8922    0.6667 </r>
       <r>   -8.8922    0.6667 </r>
       <r>   -8.8922    0.6667 </r>
       <r>   -0.4725    0.0000 </r>
       <r>    1.8596    0.0000 </r>
       <r>    1.8596    0.0000 </r>
      </set>
     </set>
    </set>
   </array>
  </eigenvalues>
  <separator name="orbital magnetization" >
   <v name="MAGDIPOLOUT">      0.00000000      0.00000000      0.00000000</v>
  </separator>
  <dos>
   <i name="efermi">     -8.88912751 </i>
   <total>
    <array>
     <dimension dim="1">gridpoints</dimension>
     <dimension dim="2">spin</dimension>
     <field>energy</field>
     <field>total</field>
     <field>integrated</field>
     <set>
      <set comment="spin 1">
       <r>   -25.1156     0.0000     0.0000 </r>
       <r>   -25.0214     0.0000     0.0000 </r>
       <r>   -24.9272     0.0000     0.0000 </r>
       <r>   -24.8331     0.0000     0.0000 </r>
       <r>   -24.7389     0.0000     0.0000 </r>
       <r>   -24.6447     0.0000     0.0000 </r>
       <r>   -24.5505     0.0000     0.0000 </r>
       <r>   -24.4563     0.0000     0.0000 </r>
       <r>   -24.3621     0.0000     0.0000 </r>
       <r>   -24.2679     0.0000     0.0000 </r>
       <r>   -24.1737     0.0000     0.0000 </r>
       <r>   -24.0795     0.0000     0.0000 </r>
       <r>   -23.9853     0.0000     0.0000 </r>
       <r>   -23.8911     0.0000     0.0000 </r>
       <r>   -23.7969    21.2316     2.0000 </r>
       <r>   -23.7027     0.0000     2.0000 </r>
       <r>   -23.6085     0.0000     2.0000 </r>
       <r>   -23.5143     0.0000     2.0000 </r>
       <r>   -23.4201     0.0000     2.0000 </r>
       <r>   -23.3259     0.0000     2.0000 </r>
       <r>   -23.2317     0.0000     2.0000 </r>
       <r>   -23.1375     0.0000     2.0000 </r>
       <r>   -23.0433     0.0000     2.0000 </r>
       <r>   -22.9491     0.0000     2.0000 </r>
       <r>   -22.8549     0.0000     2.0000 </r>
       <r>   -22.7607     0.0000     2.0000 </r>
       <r>   -22.6665     0.0000     2.0000 </r>
       <r>   -22.5723     0.0000     2.0000 </r>
       <r>   -22.4781     0.0000     2.0000 </r>
       <r>   -22.3839     0.0000     2.0000 </r>
       <r>   -22.2897     0.0000     2.0000 </r>
       <r>   -22.1955     0.0000     2.0000 </r>
       <r>   -22.1013     0.0000     2.0000 </r>
       <r>   -22.0071     0.0000     2.0000 </r>
       <r>   -21.9129     0.0000     2.0000 </r>
       <r>   -21.8187     0.0000     2.0000 </r>
       <r>   -21.7245     0.0000     2.0000 </r>
       <r>   -21.6303     0.0000     2.0000 </r>
       <r>   -21.5361     0.0000     2.0000 </r>
       <r>   -21.4419     0.0000     2.0000 </r>
       <r>   -21.3477     0.0000     2.0000 </r>
       <r>   -21.2535     0.0000     2.0000 </r>
       <r>   -21.1593     0.0000     2.0000 </r>
       <r>   -21.0651     0.0000     2.0000 </r>
       <r>   -20.9709     0.0000     2.0000 </r>
       <r>   -20.8767     0.0000     2.0000 </r>
       <r>   -20.7825     0.0000     2.0000 </r>
       <r>   -20.6883     0.0000     2.0000 </r>
       <r>   -20.5941     0.0000     2.0000 </r>
       <r>   -20.4999     0.0000     2.0000 </r>
       <r>   -20.4057     0.0000     2.0000 </r>
       <r>   -20.3115     0.0000     2.0000 </r>
       <r>   -20.2173     0.0000     2.0000 </r>
       <r>   -20.1231     0.0000     2.0000 </r>
       <r>   -20.0289     0.0000     2.0000 </r>
       <r>   -19.9347     0.0000     2.0000 </r>
       <r>   -19.8405     0.0000     2.0000 </r>
       <r>   -19.7463     0.0000     2.0000 </r>
       <r>   -19.6521     0.0000     2.0000 </r>
       <r>   -19.5579     0.0000     2.0000 </r>
       <r>   -19.4637     0.0000     2.0000 </r>
       <r>   -19.3695     0.0000     2.0000 </r>
       <r>   -19.2753     0.0000     2.0000 </r>
       <r>   -19.1811     0.0000     2.0000 </r>
       <r>   -19.0869     0.0000     2.0000 </r>
       <r>   -18.9927     0.0000     2.0000 </r>
       <r>   -18.8985     0.0000     2.0000 </r>
       <r>   -18.8043     0.0000     2.0000 </r>
       <r>   -18.7101     0.0000     2.0000 </r>
       <r>   -18.6159     0.0000     2.0000 </r>
       <r>   -18.5217     0.0000     2.0000 </r>
       <r>   -18.4275     0.0000     2.0000 </r>
       <r>   -18.3333     0.0000     2.0000 </r>
       <r>   -18.2391     0.0000     2.0000 </r>
       <r>   -18.1449     0.0000     2.0000 </r>
       <r>   -18.0507     0.0000     2.0000 </r>
       <r>   -17.9565     0.0000     2.0000 </r>
       <r>   -17.8623     0.0000     2.0000 </r>
       <r>   -17.7681     0.0000     2.0000 </r>
       <r>   -17.6739     0.0000     2.0000 </r>
       <r>   -17.5797     0.0000     2.0000 </r>
       <r>   -17.4855     0.0000     2.0000 </r>
       <r>   -17.3913     0.0000     2.0000 </r>
       <r>   -17.2971     0.0000     2.0000 </r>
       <r>   -17.2029     0.0000     2.0000 </r>
       <r>   -17.1087     0.0000     2.0000 </r>
       <r>   -17.0145     0.0000     2.0000 </r>
       <r>   -16.9203     0.0000     2.0000 </r>
       <r>   -16.8261     0.0000     2.0000 </r>
       <r>   -16.7319     0.0000     2.0000 </r>
       <r>   -16.6377     0.0000     2.0000 </r>
       <r>   -16.5435     0.0000     2.0000 </r>
       <r>   -16.4493     0.0000     2.0000 </r>
       <r>   -16.3551     0.0000     2.0000 </r>
       <r>   -16.2609     0.0000     2.0000 </r>
       <r>   -16.1667     0.0000     2.0000 </r>
       <r>   -16.0725     0.0000     2.0000 </r>
       <r>   -15.9783     0.0000     2.0000 </r>
       <r>   -15.8841     0.0000     2.0000 </r>
       <r>   -15.7899     0.0000     2.0000 </r>
       <r>   -15.6957     0.0000     2.0000 </r>
       <r>   -15.6015     0.0000     2.0000 </r>
       <r>   -15.5073     0.0000     2.0000 </r>
       <r>   -15.4131     0.0000     2.0000 </r>
       <r>   -15.3189     0.0000     2.0000 </r>
       <r>   -15.2247     0.0000     2.0000 </r>
       <r>   -15.1305     0.0000     2.0000 </r>
       <r>   -15.0363     0.0000     2.0000 </r>
       <r>   -14.9421     0.0000     2.0000 </r>
       <r>   -14.8479     0.0000     2.0000 </r>
       <r>   -14.7537     0.0000     2.0000 </r>
       <r>   -14.6595     0.0000     2.0000 </r>
       <r>   -14.5653     0.0000     2.0000 </r>
       <r>   -14.4711     0.0000     2.0000 </r>
       <r>   -14.3769     0.0000     2.0000 </r>
       <r>   -14.2828     0.0000     2.0000 </r>
       <r>   -14.1886     0.0000     2.0000 </r>
       <r>   -14.0944     0.0000     2.0000 </r>
       <r>   -14.0002     0.0000     2.0000 </r>
       <r>   -13.9060     0.0000     2.0000 </r>
       <r>   -13.8118     0.0000     2.0000 </r>
       <r>   -13.7176     0.0000     2.0000 </r>
       <r>   -13.6234     0.0000     2.0000 </r>
       <r>   -13.5292     0.0000     2.0000 </r>
       <r>   -13.4350     0.0000     2.0000 </r>
       <r>   -13.3408     0.0000     2.0000 </r>
       <r>   -13.2466     0.0000     2.0000 </r>
       <r>   -13.1524     0.0000     2.0000 </r>
       <r>   -13.0582     0.0000     2.0000 </r>
       <r>   -12.9640     0.0000     2.0000 </r>
       <r>   -12.8698     0.0000     2.0000 </r>
       <r>   -12.7756     0.0000     2.0000 </r>
       <r>   -12.6814     0.0000     2.0000 </r>
       <r>   -12.5872     0.0000     2.0000 </r>
       <r>   -12.4930     0.0000     2.0000 </r>
       <r>   -12.3988     0.0000     2.0000 </r>
       <r>   -12.3046     0.0000     2.0000 </r>
       <r>   -12.2104     0.0000     2.0000 </r>
       <r>   -12.1162     0.0000     2.0000 </r>
       <r>   -12.0220     0.0000     2.0000 </r>
       <r>   -11.9278     0.0000     2.0000 </r>
       <r>   -11.8336     0.0000     2.0000 </r>
       <r>   -11.7394     0.0000     2.0000 </r>
       <r>   -11.6452     0.0000     2.0000 </r>
       <r>   -11.5510     0.0000     2.0000 </r>
       <r>   -11.4568     0.0000     2.0000 </r>
       <r>   -11.3626     0.0000     2.0000 </r>
       <r>   -11.2684     0.0000     2.0000 </r>
       <r>   -11.1742     0.0000     2.0000 </r>
       <r>   -11.0800     0.0000     2.0000 </r>
       <r>   -10.9858     0.0000     2.0000 </r>
       <r>   -10.8916     0.0000     2.0000 </r>
       <r>   -10.7974     0.0000     2.0000 </r>
       <r>   -10.7032     0.0000     2.0000 </r>
       <r>   -10.6090     0.0000     2.0000 </r>
       <r>   -10.5148     0.0000     2.0000 </r>
       <r>   -10.4206     0.0000     2.0000 </r>
       <r>   -10.3264     0.0000     2.0000 </r>
       <r>   -10.2322     0.0000     2.0000 </r>
       <r>   -10.1380     0.0000     2.0000 </r>
       <r>   -10.0438     0.0000     2.0000 </r>
       <r>    -9.9496     0.0000     2.0000 </r>
       <r>    -9.8554     0.0000     2.0000 </r>
       <r>    -9.7612     0.0000     2.0000 </r>
       <r>    -9.6670     0.0000     2.0000 </r>
       <r>    -9.5728     0.0000     2.0000 </r>
       <r>    -9.4786     0.0000     2.0000 </r>
       <r>    -9.3844     0.0000     2.0000 </r>
       <r>    -9.2902     0.0000     2.0000 </r>
       <r>    -9.1960     0.0000     2.0000 </r>
       <r>    -9.1018     0.0000     2.0000 </r>
       <r>    -9.0076     0.0000     2.0000 </r>
       <r>    -8.9134     0.0854     2.0080 </r>
       <r>    -8.8192    63.6095     8.0000 </r>
       <r>    -8.7250     0.0000     8.0000 </r>
       <r>    -8.6308     0.0000     8.0000 </r>
       <r>    -8.5366     0.0000     8.0000 </r>
       <r>    -8.4424     0.0000     8.0000 </r>
       <r>    -8.3482     0.0000     8.0000 </r>
       <r>    -8.2540     0.0000     8.0000 </r>
       <r>    -8.1598     0.0000     8.0000 </r>
       <r>    -8.0656     0.0000     8.0000 </r>
       <r>    -7.9714     0.0000     8.0000 </r>
       <r>    -7.8772     0.0000     8.0000 </r>
       <r>    -7.7830     0.0000     8.0000 </r>
       <r>    -7.6888     0.0000     8.0000 </r>
       <r>    -7.5946     0.0000     8.0000 </r>
       <r>    -7.5004     0.0000     8.0000 </r>
       <r>    -7.4062     0.0000     8.0000 </r>
       <r>    -7.3120     0.0000     8.0000 </r>
       <r>    -7.2178     0.0000     8.0000 </r>
       <r>    -7.1236     0.0000     8.0000 </r>
       <r>    -7.0294     0.0000     8.0000 </r>
       <r>    -6.9352     0.0000     8.0000 </r>
       <r>    -6.8410     0.0000     8.0000 </r>
       <r>    -6.7468     0.0000     8.0000 </r>
       <r>    -6.6526     0.0000     8.0000 </r>
       <r>    -6.5584     0.0000     8.0000 </r>
       <r>    -6.4642     0.0000     8.0000 </r>
       <r>    -6.3700     0.0000     8.0000 </r>
       <r>    -6.2758     0.0000     8.0000 </r>
       <r>    -6.1816     0.0000     8.0000 </r>
       <r>    -6.0874     0.0000     8.0000 </r>
       <r>    -5.9932     0.0000     8.0000 </r>
       <r>    -5.8990     0.0000     8.0000 </r>
       <r>    -5.8048     0.0000     8.0000 </r>
       <r>    -5.7106     0.0000     8.0000 </r>
       <r>    -5.6164     0.0000     8.0000 </r>
       <r>    -5.5222     0.0000     8.0000 </r>
       <r>    -5.4280     0.0000     8.0000 </r>
       <r>    -5.3338     0.0000     8.0000 </r>
       <r>    -5.2396     0.0000     8.0000 </r>
       <r>    -5.1454     0.0000     8.0000 </r>
       <r>    -5.0512     0.0000     8.0000 </r>
       <r>    -4.9570     0.0000     8.0000 </r>
       <r>    -4.8628     0.0000     8.0000 </r>
       <r>    -4.7686     0.0000     8.0000 </r>
       <r>    -4.6744     0.0000     8.0000 </r>
       <r>    -4.5802     0.0000     8.0000 </r>
       <r>    -4.4860     0.0000     8.0000 </r>
       <r>    -4.3918     0.0000     8.0000 </r>
       <r>    -4.2976     0.0000     8.0000 </r>
       <r>    -4.2034     0.0000     8.0000 </r>
       <r>    -4.1092     0.0000     8.0000 </r>
       <r>    -4.0150     0.0000     8.0000 </r>
       <r>    -3.9208     0.0000     8.0000 </r>
       <r>    -3.8266     0.0000     8.0000 </r>
       <r>    -3.7324     0.0000     8.0000 </r>
       <r>    -3.6383     0.0000     8.0000 </r>
       <r>    -3.5441     0.0000     8.0000 </r>
       <r>    -3.4499     0.0000     8.0000 </r>
       <r>    -3.3557     0.0000     8.0000 </r>
       <r>    -3.2615     0.0000     8.0000 </r>
       <r>    -3.1673     0.0000     8.0000 </r>
       <r>    -3.0731     0.0000     8.0000 </r>
       <r>    -2.9789     0.0000     8.0000 </r>
       <r>    -2.8847     0.0000     8.0000 </r>
       <r>    -2.7905     0.0000     8.0000 </r>
       <r>    -2.6963     0.0000     8.0000 </r>
       <r>    -2.6021     0.0000     8.0000 </r>
       <r>    -2.5079     0.0000     8.0000 </r>
       <r>    -2.4137     0.0000     8.0000 </r>
       <r>    -2.3195     0.0000     8.0000 </r>
       <r>    -2.2253     0.0000     8.0000 </r>
       <r>    -2.1311     0.0000     8.0000 </r>
       <r>    -2.0369     0.0000     8.0000 </r>
       <r>    -1.9427     0.0000     8.0000 </r>
       <r>    -1.8485     0.0000     8.0000 </r>
       <r>    -1.7543     0.0000     8.0000 </r>
       <r>    -1.6601     0.0000     8.0000 </r>
       <r>    -1.5659     0.0000     8.0000 </r>
       <r>    -1.4717     0.0000     8.0000 </r>
       <r>    -1.3775     0.0000     8.0000 </r>
       <r>    -1.2833     0.0000     8.0000 </r>
       <r>    -1.1891     0.0000     8.0000 </r>
       <r>    -1.0949     0.0000     8.0000 </r>
       <r>    -1.0007     0.0000     8.0000 </r>
       <r>    -0.9065     0.0000     8.0000 </r>
       <r>    -0.8123     0.0000     8.0000 </r>
       <r>    -0.7181     0.0000     8.0000 </r>
       <r>    -0.6239     0.0000     8.0000 </r>
       <r>    -0.5297     0.0000     8.0000 </r>
       <r>    -0.4355    21.2316    10.0000 </r>
       <r>    -0.3413     0.0000    10.0000 </r>
       <r>    -0.2471     0.0000    10.0000 </r>
       <r>    -0.1529     0.0000    10.0000 </r>
       <r>    -0.0587     0.0000    10.0000 </r>
       <r>     0.0355     0.0000    10.0000 </r>
       <r>     0.1297     0.0000    10.0000 </r>
       <r>     0.2239     0.0000    10.0000 </r>
       <r>     0.3181     0.0000    10.0000 </r>
       <r>     0.4123     0.0000    10.0000 </r>
       <r>     0.5065     0.0000    10.0000 </r>
       <r>     0.6007     0.0000    10.0000 </r>
       <r>     0.6949     0.0000    10.0000 </r>
       <r>     0.7891     0.0000    10.0000 </r>
       <r>     0.8833     0.0000    10.0000 </r>
       <r>     0.9775     0.0000    10.0000 </r>
       <r>     1.0717     0.0000    10.0000 </r>
       <r>     1.1659     0.0000    10.0000 </r>
       <r>     1.2601     0.0000    10.0000 </r>
       <r>     1.3543     0.0000    10.0000 </r>
       <r>     1.4485     0.0000    10.0000 </r>
       <r>     1.5427     0.0000    10.0000 </r>
       <r>     1.6369     0.0000    10.0000 </r>
       <r>     1.7311     0.0000    10.0000 </r>
       <r>     1.8253     0.0000    10.0000 </r>
       <r>     1.9195    42.4632    14.0000 </r>
       <r>     2.0137     0.0000    14.0000 </r>
       <r>     2.1079     0.0000    14.0000 </r>
       <r>     2.2021     0.0000    14.0000 </r>
       <r>     2.2963     0.0000    14.0000 </r>
       <r>     2.3905     0.0000    14.0000 </r>
       <r>     2.4847     0.0000    14.0000 </r>
       <r>     2.5789     0.0000    14.0000 </r>
       <r>     2.6731     0.0000    14.0000 </r>
       <r>     2.7673     0.0000    14.0000 </r>
       <r>     2.8615     0.0000    14.0000 </r>
       <r>     2.9557     0.0000    14.0000 </r>
       <r>     3.0499     0.0000    14.0000 </r>
       <r>     3.1441     0.0000    14.0000 </r>
      </set>
     </set>
    </array>
   </total>
  </dos>
 </calculation>
 <structure name="finalpos" >
  <crystal>
   <varray name="basis" >
    <v>       8.00000000       0.00000000       0.00000000 </v>
    <v>       0.00000000       8.00000000       0.00000000 </v>
    <v>       0.00000000       0.00000000       8.00000000 </v>
   </varray>
   <i name="volume">    512.00000000 </i>
   <varray name="rec_basis" >
    <v>       0.12500000       0.00000000       0.00000000 </v>
    <v>       0.00000000       0.12500000       0.00000000 </v>
    <v>       0.00000000       0.00000000       0.12500000 </v>
   </varray>
  </crystal>
  <varray name="positions" >
   <v>       0.00000000       0.00000000       0.00000000 </v>
  </varray>
 </structure>
</modeling>
