   2   2   0   0
  0.2670000E+03  0.7500000E-09  0.8000000E-09  0.8900000E-09  0.5000000E-15
  1.000000000000000E-004
  CAR 
 O ATOM                                  
      3.89430934    -34.07355996  301     -6.70505417      1.00000000
    -34.074  0.0000E+00  0.0000E+00  0.0000E+00  0.0000E+00
    -33.947  0.0000E+00  0.0000E+00  0.0000E+00  0.0000E+00
    -33.820  0.0000E+00  0.0000E+00  0.0000E+00  0.0000E+00
    -33.694  0.0000E+00  0.0000E+00  0.0000E+00  0.0000E+00
    -33.567  0.0000E+00  0.0000E+00  0.0000E+00  0.0000E+00
    -33.441  0.0000E+00  0.0000E+00  0.0000E+00  0.0000E+00
    -33.314  0.0000E+00  0.0000E+00  0.0000E+00  0.0000E+00
    -33.188  0.0000E+00  0.0000E+00  0.0000E+00  0.0000E+00
    -33.061  0.0000E+00  0.0000E+00  0.0000E+00  0.0000E+00
    -32.935  0.0000E+00  0.0000E+00  0.0000E+00  0.0000E+00
    -32.808  0.0000E+00  0.0000E+00  0.0000E+00  0.0000E+00
    -32.681  0.0000E+00  0.0000E+00  0.0000E+00  0.0000E+00
    -32.555  0.0000E+00  0.0000E+00  0.0000E+00  0.0000E+00
    -32.428  0.0000E+00  0.0000E+00  0.0000E+00  0.0000E+00
    -32.302  0.7901E+00  0.0000E+00  0.1000E+00  0.0000E+00
    -32.175  0.0000E+00  0.0000E+00  0.1000E+00  0.0000E+00
    -32.049  0.0000E+00  0.0000E+00  0.1000E+00  0.0000E+00
    -31.922  0.0000E+00  0.0000E+00  0.1000E+00  0.0000E+00
    -31.795  0.0000E+00  0.0000E+00  0.1000E+00  0.0000E+00
    -31.669  0.0000E+00  0.0000E+00  0.1000E+00  0.0000E+00
    -31.542  0.0000E+00  0.0000E+00  0.1000E+00  0.0000E+00
    -31.416  0.0000E+00  0.0000E+00  0.1000E+00  0.0000E+00
    -31.289  0.0000E+00  0.0000E+00  0.1000E+00  0.0000E+00
    -31.163  0.0000E+00  0.4205E-08  0.1000E+00  0.5321E-09
    -31.036  0.0000E+00  0.0000E+00  0.1000E+00  0.1000E+00
    -30.910  0.0000E+00  0.0000E+00  0.1000E+00  0.1000E+00
    -30.783  0.0000E+00  0.0000E+00  0.1000E+00  0.1000E+00
    -30.656  0.0000E+00  0.0000E+00  0.1000E+00  0.1000E+00
    -30.530  0.0000E+00  0.0000E+00  0.1000E+00  0.1000E+00
    -30.403  0.0000E+00  0.0000E+00  0.1000E+00  0.1000E+00
    -30.277  0.0000E+00  0.0000E+00  0.1000E+00  0.1000E+00
    -30.150  0.0000E+00  0.0000E+00  0.1000E+00  0.1000E+00
    -30.024  0.0000E+00  0.0000E+00  0.1000E+00  0.1000E+00
    -29.897  0.0000E+00  0.0000E+00  0.1000E+00  0.1000E+00
    -29.771  0.0000E+00  0.0000E+00  0.1000E+00  0.1000E+00
    -29.644  0.0000E+00  0.0000E+00  0.1000E+00  0.1000E+00
    -29.517  0.0000E+00  0.0000E+00  0.1000E+00  0.1000E+00
    -29.391  0.0000E+00  0.0000E+00  0.1000E+00  0.1000E+00
    -29.264  0.0000E+00  0.0000E+00  0.1000E+00  0.1000E+00
    -29.138  0.0000E+00  0.0000E+00  0.1000E+00  0.1000E+00
    -29.011  0.0000E+00  0.0000E+00  0.1000E+00  0.1000E+00
    -28.885  0.0000E+00  0.0000E+00  0.1000E+00  0.1000E+00
    -28.758  0.0000E+00  0.0000E+00  0.1000E+00  0.1000E+00
    -28.631  0.0000E+00  0.0000E+00  0.1000E+00  0.1000E+00
    -28.505  0.0000E+00  0.0000E+00  0.1000E+00  0.1000E+00
    -28.378  0.0000E+00  0.0000E+00  0.1000E+00  0.1000E+00
    -28.252  0.0000E+00  0.0000E+00  0.1000E+00  0.1000E+00
    -28.125  0.0000E+00  0.0000E+00  0.1000E+00  0.1000E+00
    -27.999  0.0000E+00  0.0000E+00  0.1000E+00  0.1000E+00
    -27.872  0.0000E+00  0.0000E+00  0.1000E+00  0.1000E+00
    -27.746  0.0000E+00  0.0000E+00  0.1000E+00  0.1000E+00
    -27.619  0.0000E+00  0.0000E+00  0.1000E+00  0.1000E+00
    -27.492  0.0000E+00  0.0000E+00  0.1000E+00  0.1000E+00
    -27.366  0.0000E+00  0.0000E+00  0.1000E+00  0.1000E+00
    -27.239  0.0000E+00  0.0000E+00  0.1000E+00  0.1000E+00
    -27.113  0.0000E+00  0.0000E+00  0.1000E+00  0.1000E+00
    -26.986  0.0000E+00  0.0000E+00  0.1000E+00  0.1000E+00
    -26.860  0.0000E+00  0.0000E+00  0.1000E+00  0.1000E+00
    -26.733  0.0000E+00  0.0000E+00  0.1000E+00  0.1000E+00
    -26.607  0.0000E+00  0.0000E+00  0.1000E+00  0.1000E+00
    -26.480  0.0000E+00  0.0000E+00  0.1000E+00  0.1000E+00
    -26.353  0.0000E+00  0.0000E+00  0.1000E+00  0.1000E+00
    -26.227  0.0000E+00  0.0000E+00  0.1000E+00  0.1000E+00
    -26.100  0.0000E+00  0.0000E+00  0.1000E+00  0.1000E+00
    -25.974  0.0000E+00  0.0000E+00  0.1000E+00  0.1000E+00
    -25.847  0.0000E+00  0.0000E+00  0.1000E+00  0.1000E+00
    -25.721  0.0000E+00  0.0000E+00  0.1000E+00  0.1000E+00
    -25.594  0.0000E+00  0.0000E+00  0.1000E+00  0.1000E+00
    -25.468  0.0000E+00  0.0000E+00  0.1000E+00  0.1000E+00
    -25.341  0.0000E+00  0.0000E+00  0.1000E+00  0.1000E+00
    -25.214  0.0000E+00  0.0000E+00  0.1000E+00  0.1000E+00
    -25.088  0.0000E+00  0.0000E+00  0.1000E+00  0.1000E+00
    -24.961  0.0000E+00  0.0000E+00  0.1000E+00  0.1000E+00
    -24.835  0.0000E+00  0.0000E+00  0.1000E+00  0.1000E+00
    -24.708  0.0000E+00  0.0000E+00  0.1000E+00  0.1000E+00
    -24.582  0.0000E+00  0.0000E+00  0.1000E+00  0.1000E+00
    -24.455  0.0000E+00  0.0000E+00  0.1000E+00  0.1000E+00
    -24.328  0.0000E+00  0.0000E+00  0.1000E+00  0.1000E+00
    -24.202  0.0000E+00  0.0000E+00  0.1000E+00  0.1000E+00
    -24.075  0.0000E+00  0.0000E+00  0.1000E+00  0.1000E+00
    -23.949  0.0000E+00  0.0000E+00  0.1000E+00  0.1000E+00
    -23.822  0.0000E+00  0.0000E+00  0.1000E+00  0.1000E+00
    -23.696  0.0000E+00  0.0000E+00  0.1000E+00  0.1000E+00
    -23.569  0.0000E+00  0.0000E+00  0.1000E+00  0.1000E+00
    -23.443  0.0000E+00  0.0000E+00  0.1000E+00  0.1000E+00
    -23.316  0.0000E+00  0.0000E+00  0.1000E+00  0.1000E+00
    -23.189  0.0000E+00  0.0000E+00  0.1000E+00  0.1000E+00
    -23.063  0.0000E+00  0.0000E+00  0.1000E+00  0.1000E+00
    -22.936  0.0000E+00  0.0000E+00  0.1000E+00  0.1000E+00
    -22.810  0.0000E+00  0.0000E+00  0.1000E+00  0.1000E+00
    -22.683  0.0000E+00  0.0000E+00  0.1000E+00  0.1000E+00
    -22.557  0.0000E+00  0.0000E+00  0.1000E+00  0.1000E+00
    -22.430  0.0000E+00  0.0000E+00  0.1000E+00  0.1000E+00
    -22.304  0.0000E+00  0.0000E+00  0.1000E+00  0.1000E+00
    -22.177  0.0000E+00  0.0000E+00  0.1000E+00  0.1000E+00
    -22.050  0.0000E+00  0.0000E+00  0.1000E+00  0.1000E+00
    -21.924  0.0000E+00  0.0000E+00  0.1000E+00  0.1000E+00
    -21.797  0.0000E+00  0.0000E+00  0.1000E+00  0.1000E+00
    -21.671  0.0000E+00  0.0000E+00  0.1000E+00  0.1000E+00
    -21.544  0.0000E+00  0.0000E+00  0.1000E+00  0.1000E+00
    -21.418  0.0000E+00  0.0000E+00  0.1000E+00  0.1000E+00
    -21.291  0.0000E+00  0.0000E+00  0.1000E+00  0.1000E+00
    -21.164  0.0000E+00  0.0000E+00  0.1000E+00  0.1000E+00
    -21.038  0.0000E+00  0.0000E+00  0.1000E+00  0.1000E+00
    -20.911  0.0000E+00  0.0000E+00  0.1000E+00  0.1000E+00
    -20.785  0.0000E+00  0.0000E+00  0.1000E+00  0.1000E+00
    -20.658  0.0000E+00  0.0000E+00  0.1000E+00  0.1000E+00
    -20.532  0.0000E+00  0.0000E+00  0.1000E+00  0.1000E+00
    -20.405  0.7901E+00  0.0000E+00  0.2000E+00  0.1000E+00
    -20.279  0.0000E+00  0.0000E+00  0.2000E+00  0.1000E+00
    -20.152  0.0000E+00  0.0000E+00  0.2000E+00  0.1000E+00
    -20.025  0.0000E+00  0.0000E+00  0.2000E+00  0.1000E+00
    -19.899  0.0000E+00  0.0000E+00  0.2000E+00  0.1000E+00
    -19.772  0.0000E+00  0.0000E+00  0.2000E+00  0.1000E+00
    -19.646  0.0000E+00  0.0000E+00  0.2000E+00  0.1000E+00
    -19.519  0.0000E+00  0.0000E+00  0.2000E+00  0.1000E+00
    -19.393  0.0000E+00  0.0000E+00  0.2000E+00  0.1000E+00
    -19.266  0.0000E+00  0.0000E+00  0.2000E+00  0.1000E+00
    -19.140  0.0000E+00  0.0000E+00  0.2000E+00  0.1000E+00
    -19.013  0.0000E+00  0.0000E+00  0.2000E+00  0.1000E+00
    -18.886  0.0000E+00  0.0000E+00  0.2000E+00  0.1000E+00
    -18.760  0.0000E+00  0.0000E+00  0.2000E+00  0.1000E+00
    -18.633  0.0000E+00  0.7901E+00  0.2000E+00  0.2000E+00
    -18.507  0.0000E+00  0.0000E+00  0.2000E+00  0.2000E+00
    -18.380  0.0000E+00  0.0000E+00  0.2000E+00  0.2000E+00
    -18.254  0.0000E+00  0.0000E+00  0.2000E+00  0.2000E+00
    -18.127  0.0000E+00  0.0000E+00  0.2000E+00  0.2000E+00
    -18.000  0.0000E+00  0.0000E+00  0.2000E+00  0.2000E+00
    -17.874  0.0000E+00  0.0000E+00  0.2000E+00  0.2000E+00
    -17.747  0.0000E+00  0.0000E+00  0.2000E+00  0.2000E+00
    -17.621  0.0000E+00  0.0000E+00  0.2000E+00  0.2000E+00
    -17.494  0.0000E+00  0.0000E+00  0.2000E+00  0.2000E+00
    -17.368  0.0000E+00  0.0000E+00  0.2000E+00  0.2000E+00
    -17.241  0.0000E+00  0.0000E+00  0.2000E+00  0.2000E+00
    -17.115  0.0000E+00  0.0000E+00  0.2000E+00  0.2000E+00
    -16.988  0.0000E+00  0.0000E+00  0.2000E+00  0.2000E+00
    -16.861  0.0000E+00  0.0000E+00  0.2000E+00  0.2000E+00
    -16.735  0.0000E+00  0.0000E+00  0.2000E+00  0.2000E+00
    -16.608  0.0000E+00  0.0000E+00  0.2000E+00  0.2000E+00
    -16.482  0.0000E+00  0.0000E+00  0.2000E+00  0.2000E+00
    -16.355  0.0000E+00  0.0000E+00  0.2000E+00  0.2000E+00
    -16.229  0.0000E+00  0.0000E+00  0.2000E+00  0.2000E+00
    -16.102  0.0000E+00  0.0000E+00  0.2000E+00  0.2000E+00
    -15.976  0.0000E+00  0.0000E+00  0.2000E+00  0.2000E+00
    -15.849  0.0000E+00  0.0000E+00  0.2000E+00  0.2000E+00
    -15.722  0.0000E+00  0.0000E+00  0.2000E+00  0.2000E+00
    -15.596  0.0000E+00  0.0000E+00  0.2000E+00  0.2000E+00
    -15.469  0.0000E+00  0.0000E+00  0.2000E+00  0.2000E+00
    -15.343  0.0000E+00  0.0000E+00  0.2000E+00  0.2000E+00
    -15.216  0.0000E+00  0.0000E+00  0.2000E+00  0.2000E+00
    -15.090  0.0000E+00  0.0000E+00  0.2000E+00  0.2000E+00
    -14.963  0.0000E+00  0.0000E+00  0.2000E+00  0.2000E+00
    -14.837  0.0000E+00  0.0000E+00  0.2000E+00  0.2000E+00
    -14.710  0.0000E+00  0.0000E+00  0.2000E+00  0.2000E+00
    -14.583  0.0000E+00  0.0000E+00  0.2000E+00  0.2000E+00
    -14.457  0.0000E+00  0.0000E+00  0.2000E+00  0.2000E+00
    -14.330  0.0000E+00  0.0000E+00  0.2000E+00  0.2000E+00
    -14.204  0.0000E+00  0.0000E+00  0.2000E+00  0.2000E+00
    -14.077  0.0000E+00  0.0000E+00  0.2000E+00  0.2000E+00
    -13.951  0.0000E+00  0.0000E+00  0.2000E+00  0.2000E+00
    -13.824  0.0000E+00  0.0000E+00  0.2000E+00  0.2000E+00
    -13.697  0.0000E+00  0.0000E+00  0.2000E+00  0.2000E+00
    -13.571  0.0000E+00  0.0000E+00  0.2000E+00  0.2000E+00
    -13.444  0.0000E+00  0.0000E+00  0.2000E+00  0.2000E+00
    -13.318  0.0000E+00  0.0000E+00  0.2000E+00  0.2000E+00
    -13.191  0.7901E+00  0.0000E+00  0.3000E+00  0.2000E+00
    -13.065  0.1578E+01  0.0000E+00  0.4998E+00  0.2000E+00
    -12.938  0.0000E+00  0.0000E+00  0.5000E+00  0.2000E+00
    -12.812  0.0000E+00  0.0000E+00  0.5000E+00  0.2000E+00
    -12.685  0.0000E+00  0.0000E+00  0.5000E+00  0.2000E+00
    -12.558  0.0000E+00  0.0000E+00  0.5000E+00  0.2000E+00
    -12.432  0.0000E+00  0.0000E+00  0.5000E+00  0.2000E+00
    -12.305  0.0000E+00  0.5483E+00  0.5000E+00  0.2694E+00
    -12.179  0.0000E+00  0.0000E+00  0.5000E+00  0.3000E+00
    -12.052  0.0000E+00  0.0000E+00  0.5000E+00  0.3000E+00
    -11.926  0.0000E+00  0.0000E+00  0.5000E+00  0.3000E+00
    -11.799  0.0000E+00  0.0000E+00  0.5000E+00  0.3000E+00
    -11.673  0.0000E+00  0.0000E+00  0.5000E+00  0.3000E+00
    -11.546  0.0000E+00  0.0000E+00  0.5000E+00  0.3000E+00
    -11.419  0.0000E+00  0.0000E+00  0.5000E+00  0.3000E+00
    -11.293  0.0000E+00  0.5944E-12  0.5000E+00  0.3000E+00
    -11.166  0.0000E+00  0.1580E+01  0.5000E+00  0.5000E+00
    -11.040  0.0000E+00  0.0000E+00  0.5000E+00  0.5000E+00
    -10.913  0.0000E+00  0.0000E+00  0.5000E+00  0.5000E+00
    -10.787  0.0000E+00  0.0000E+00  0.5000E+00  0.5000E+00
    -10.660  0.0000E+00  0.0000E+00  0.5000E+00  0.5000E+00
    -10.533  0.0000E+00  0.0000E+00  0.5000E+00  0.5000E+00
    -10.407  0.0000E+00  0.0000E+00  0.5000E+00  0.5000E+00
    -10.280  0.0000E+00  0.0000E+00  0.5000E+00  0.5000E+00
    -10.154  0.0000E+00  0.0000E+00  0.5000E+00  0.5000E+00
    -10.027  0.0000E+00  0.0000E+00  0.5000E+00  0.5000E+00
     -9.901  0.0000E+00  0.0000E+00  0.5000E+00  0.5000E+00
     -9.774  0.0000E+00  0.0000E+00  0.5000E+00  0.5000E+00
     -9.648  0.0000E+00  0.0000E+00  0.5000E+00  0.5000E+00
     -9.521  0.0000E+00  0.0000E+00  0.5000E+00  0.5000E+00
     -9.394  0.0000E+00  0.0000E+00  0.5000E+00  0.5000E+00
     -9.268  0.0000E+00  0.0000E+00  0.5000E+00  0.5000E+00
     -9.141  0.0000E+00  0.0000E+00  0.5000E+00  0.5000E+00
     -9.015  0.0000E+00  0.0000E+00  0.5000E+00  0.5000E+00
     -8.888  0.0000E+00  0.0000E+00  0.5000E+00  0.5000E+00
     -8.762  0.0000E+00  0.0000E+00  0.5000E+00  0.5000E+00
     -8.635  0.0000E+00  0.0000E+00  0.5000E+00  0.5000E+00
     -8.509  0.0000E+00  0.0000E+00  0.5000E+00  0.5000E+00
     -8.382  0.0000E+00  0.0000E+00  0.5000E+00  0.5000E+00
     -8.255  0.0000E+00  0.0000E+00  0.5000E+00  0.5000E+00
     -8.129  0.0000E+00  0.0000E+00  0.5000E+00  0.5000E+00
     -8.002  0.0000E+00  0.0000E+00  0.5000E+00  0.5000E+00
     -7.876  0.0000E+00  0.0000E+00  0.5000E+00  0.5000E+00
     -7.749  0.0000E+00  0.0000E+00  0.5000E+00  0.5000E+00
     -7.623  0.0000E+00  0.0000E+00  0.5000E+00  0.5000E+00
     -7.496  0.0000E+00  0.0000E+00  0.5000E+00  0.5000E+00
     -7.369  0.0000E+00  0.0000E+00  0.5000E+00  0.5000E+00
     -7.243  0.0000E+00  0.0000E+00  0.5000E+00  0.5000E+00
     -7.116  0.0000E+00  0.0000E+00  0.5000E+00  0.5000E+00
     -6.990  0.0000E+00  0.0000E+00  0.5000E+00  0.5000E+00
     -6.863  0.0000E+00  0.0000E+00  0.5000E+00  0.5000E+00
     -6.737  0.1580E+01  0.0000E+00  0.7000E+00  0.5000E+00
     -6.610  0.0000E+00  0.0000E+00  0.7000E+00  0.5000E+00
     -6.484  0.0000E+00  0.0000E+00  0.7000E+00  0.5000E+00
     -6.357  0.0000E+00  0.0000E+00  0.7000E+00  0.5000E+00
     -6.230  0.0000E+00  0.0000E+00  0.7000E+00  0.5000E+00
     -6.104  0.0000E+00  0.0000E+00  0.7000E+00  0.5000E+00
     -5.977  0.0000E+00  0.0000E+00  0.7000E+00  0.5000E+00
     -5.851  0.0000E+00  0.0000E+00  0.7000E+00  0.5000E+00
     -5.724  0.0000E+00  0.0000E+00  0.7000E+00  0.5000E+00
     -5.598  0.0000E+00  0.0000E+00  0.7000E+00  0.5000E+00
     -5.471  0.0000E+00  0.0000E+00  0.7000E+00  0.5000E+00
     -5.345  0.0000E+00  0.0000E+00  0.7000E+00  0.5000E+00
     -5.218  0.0000E+00  0.0000E+00  0.7000E+00  0.5000E+00
     -5.091  0.0000E+00  0.0000E+00  0.7000E+00  0.5000E+00
     -4.965  0.0000E+00  0.0000E+00  0.7000E+00  0.5000E+00
     -4.838  0.0000E+00  0.0000E+00  0.7000E+00  0.5000E+00
     -4.712  0.0000E+00  0.0000E+00  0.7000E+00  0.5000E+00
     -4.585  0.0000E+00  0.0000E+00  0.7000E+00  0.5000E+00
     -4.459  0.0000E+00  0.1580E+01  0.7000E+00  0.7000E+00
     -4.332  0.0000E+00  0.0000E+00  0.7000E+00  0.7000E+00
     -4.206  0.0000E+00  0.0000E+00  0.7000E+00  0.7000E+00
     -4.079  0.0000E+00  0.0000E+00  0.7000E+00  0.7000E+00
     -3.952  0.0000E+00  0.0000E+00  0.7000E+00  0.7000E+00
     -3.826  0.0000E+00  0.0000E+00  0.7000E+00  0.7000E+00
     -3.699  0.0000E+00  0.0000E+00  0.7000E+00  0.7000E+00
     -3.573  0.0000E+00  0.0000E+00  0.7000E+00  0.7000E+00
     -3.446  0.0000E+00  0.0000E+00  0.7000E+00  0.7000E+00
     -3.320  0.0000E+00  0.0000E+00  0.7000E+00  0.7000E+00
     -3.193  0.0000E+00  0.0000E+00  0.7000E+00  0.7000E+00
     -3.066  0.0000E+00  0.0000E+00  0.7000E+00  0.7000E+00
     -2.940  0.0000E+00  0.0000E+00  0.7000E+00  0.7000E+00
     -2.813  0.0000E+00  0.0000E+00  0.7000E+00  0.7000E+00
     -2.687  0.0000E+00  0.0000E+00  0.7000E+00  0.7000E+00
     -2.560  0.0000E+00  0.0000E+00  0.7000E+00  0.7000E+00
     -2.434  0.0000E+00  0.0000E+00  0.7000E+00  0.7000E+00
     -2.307  0.0000E+00  0.0000E+00  0.7000E+00  0.7000E+00
     -2.181  0.0000E+00  0.0000E+00  0.7000E+00  0.7000E+00
     -2.054  0.0000E+00  0.0000E+00  0.7000E+00  0.7000E+00
     -1.927  0.0000E+00  0.0000E+00  0.7000E+00  0.7000E+00
     -1.801  0.0000E+00  0.0000E+00  0.7000E+00  0.7000E+00
     -1.674  0.0000E+00  0.0000E+00  0.7000E+00  0.7000E+00
     -1.548  0.0000E+00  0.0000E+00  0.7000E+00  0.7000E+00
     -1.421  0.0000E+00  0.0000E+00  0.7000E+00  0.7000E+00
     -1.295  0.0000E+00  0.0000E+00  0.7000E+00  0.7000E+00
     -1.168  0.0000E+00  0.0000E+00  0.7000E+00  0.7000E+00
     -1.042  0.0000E+00  0.0000E+00  0.7000E+00  0.7000E+00
     -0.915  0.0000E+00  0.0000E+00  0.7000E+00  0.7000E+00
     -0.788  0.0000E+00  0.0000E+00  0.7000E+00  0.7000E+00
     -0.662  0.0000E+00  0.0000E+00  0.7000E+00  0.7000E+00
     -0.535  0.0000E+00  0.0000E+00  0.7000E+00  0.7000E+00
     -0.409  0.2352E+00  0.0000E+00  0.7298E+00  0.7000E+00
     -0.282  0.0000E+00  0.6008E-11  0.8000E+00  0.7000E+00
     -0.156  0.0000E+00  0.7901E+00  0.8000E+00  0.8000E+00
     -0.029  0.0000E+00  0.0000E+00  0.8000E+00  0.8000E+00
      0.098  0.0000E+00  0.0000E+00  0.8000E+00  0.8000E+00
      0.224  0.0000E+00  0.0000E+00  0.8000E+00  0.8000E+00
      0.351  0.0000E+00  0.0000E+00  0.8000E+00  0.8000E+00
      0.477  0.0000E+00  0.0000E+00  0.8000E+00  0.8000E+00
      0.604  0.0000E+00  0.0000E+00  0.8000E+00  0.8000E+00
      0.730  0.0000E+00  0.0000E+00  0.8000E+00  0.8000E+00
      0.857  0.0000E+00  0.0000E+00  0.8000E+00  0.8000E+00
      0.983  0.5152E-05  0.0000E+00  0.8000E+00  0.8000E+00
      1.110  0.0000E+00  0.0000E+00  0.9000E+00  0.8000E+00
      1.237  0.0000E+00  0.0000E+00  0.9000E+00  0.8000E+00
      1.363  0.0000E+00  0.1158E+00  0.9000E+00  0.8147E+00
      1.490  0.0000E+00  0.0000E+00  0.9000E+00  0.9000E+00
      1.616  0.7901E+00  0.0000E+00  0.1000E+01  0.9000E+00
      1.743  0.1819E-02  0.5876E+00  0.1000E+01  0.9744E+00
      1.869  0.0000E+00  0.0000E+00  0.1100E+01  0.1000E+01
      1.996  0.1146E-08  0.7899E+00  0.1100E+01  0.1100E+01
      2.122  0.0000E+00  0.3000E-10  0.1200E+01  0.1100E+01
      2.249  0.0000E+00  0.0000E+00  0.1200E+01  0.1200E+01
      2.376  0.0000E+00  0.0000E+00  0.1200E+01  0.1200E+01
      2.502  0.0000E+00  0.0000E+00  0.1200E+01  0.1200E+01
      2.629  0.0000E+00  0.0000E+00  0.1200E+01  0.1200E+01
      2.755  0.0000E+00  0.0000E+00  0.1200E+01  0.1200E+01
      2.882  0.0000E+00  0.0000E+00  0.1200E+01  0.1200E+01
      3.008  0.0000E+00  0.0000E+00  0.1200E+01  0.1200E+01
      3.135  0.0000E+00  0.0000E+00  0.1200E+01  0.1200E+01
      3.262  0.0000E+00  0.0000E+00  0.1200E+01  0.1200E+01
      3.388  0.0000E+00  0.0000E+00  0.1200E+01  0.1200E+01
      3.515  0.0000E+00  0.0000E+00  0.1200E+01  0.1200E+01
      3.641  0.0000E+00  0.0000E+00  0.1200E+01  0.1200E+01
      3.768  0.0000E+00  0.0000E+00  0.1200E+01  0.1200E+01
      3.894  0.0000E+00  0.0000E+00  0.1200E+01  0.1200E+01
