    2    2   10    2
  0.2670000E+03  0.7500000E-09  0.8000000E-09  0.8900000E-09  0.5000000E-15
  1.000000000000000E-004
  CAR 
 O ATOM                                  
     12      1     12
 
  0.0000000E+00  0.0000000E+00  0.0000000E+00  0.1000000E+01
    1      -32.347748    -31.122242   1.000000   1.000000
    2      -20.470635    -18.672773   1.000000   1.000000
    3      -13.237603    -12.308899   1.000000   1.000000
    4      -13.086298    -11.242278   1.000000   1.000000
    5      -13.086000    -11.241984   1.000000   1.000000
    6       -6.767145     -4.492273   1.000000   0.000000
    7       -6.763640     -4.489372   1.000000   0.000000
    8       -0.404961     -0.234456   0.000000   0.000000
    9        1.014265      1.370551   0.000000   0.000000
   10        1.551210      1.738167   0.000000   0.000000
   11        1.762833      1.971787   0.000000   0.000000
   12        2.037897      2.168497   0.000000   0.000000
