       N       E                     dE             d eps       ncg     rms          rms(c)
DAV:   1    -0.981225379240E+01   -0.98123E+01   -0.41641E-06    52   0.103E-02    0.100E-03
DAV:   2    -0.981225377458E+01    0.17825E-07   -0.10597E-07    56   0.224E-03
   1 F= -.98122538E+01 E0= -.98122538E+01  d E =-.981225E+01  mag=     2.0000
       N       E                     dE             d eps       ncg     rms          rms(c)
DAV:   1    -0.773586251637E+01    0.20764E+01   -0.15484E+02    52   0.106E+02    0.454E+00
DAV:   2    -0.789140714310E+01   -0.15554E+00   -0.27518E+00    48   0.145E+01    0.248E+00
DAV:   3    -0.788864959897E+01    0.27575E-02   -0.16840E-01    52   0.337E+00    0.112E+00
DAV:   4    -0.787623880769E+01    0.12411E-01   -0.13028E-01    52   0.266E+00    0.382E-01
DAV:   5    -0.788130958205E+01   -0.50708E-02   -0.11438E-02    48   0.829E-01    0.203E-01
DAV:   6    -0.788180431180E+01   -0.49473E-03   -0.88977E-04    52   0.217E-01    0.772E-02
DAV:   7    -0.788288369298E+01   -0.10794E-02   -0.16474E-04    48   0.114E-01    0.167E-02
DAV:   8    -0.788331726976E+01   -0.43358E-03   -0.23249E-05    52   0.295E-02    0.105E-02
DAV:   9    -0.788394173770E+01   -0.62447E-03   -0.77921E-05    48   0.454E-02    0.567E-03
DAV:  10    -0.788413559351E+01   -0.19386E-03   -0.17746E-05    52   0.214E-02    0.412E-03
DAV:  11    -0.788427547409E+01   -0.13988E-03   -0.10820E-05    48   0.168E-02    0.220E-03
DAV:  12    -0.788434715485E+01   -0.71681E-04   -0.34991E-06    48   0.964E-03
   2 F= -.78843472E+01 E0= -.78843472E+01  d E =0.192791E+01  mag=     2.0000
       N       E                     dE             d eps       ncg     rms          rms(c)
DAV:   1    -0.989478144286E+01   -0.20105E+01   -0.13468E+02    60   0.960E+01    0.469E+00
DAV:   2    -0.979740889002E+01    0.97373E-01   -0.15263E+00    56   0.111E+01    0.187E+00
DAV:   3    -0.983151624215E+01   -0.34107E-01   -0.10092E-01    60   0.281E+00    0.864E-01
DAV:   4    -0.983814448444E+01   -0.66282E-02   -0.16231E-02    56   0.114E+00    0.346E-01
DAV:   5    -0.984025447940E+01   -0.21100E-02   -0.14495E-03    48   0.367E-01    0.135E-01
DAV:   6    -0.984165912824E+01   -0.14046E-02   -0.37092E-04    52   0.175E-01    0.239E-02
DAV:   7    -0.984196086680E+01   -0.30174E-03   -0.34124E-05    48   0.489E-02    0.134E-02
DAV:   8    -0.984225136972E+01   -0.29050E-03   -0.19127E-05    56   0.283E-02    0.761E-03
DAV:   9    -0.984255863829E+01   -0.30727E-03   -0.23991E-05    52   0.275E-02    0.472E-03
DAV:  10    -0.984270854615E+01   -0.14991E-03   -0.76031E-06    52   0.178E-02    0.357E-03
DAV:  11    -0.984284099642E+01   -0.13245E-03   -0.76715E-06    48   0.165E-02    0.154E-03
DAV:  12    -0.984287276135E+01   -0.31765E-04   -0.13516E-06    52   0.756E-03
   3 F= -.98428728E+01 E0= -.98428728E+01  d E =-.306190E-01  mag=     2.0000
       N       E                     dE             d eps       ncg     rms          rms(c)
DAV:   1    -0.985166886486E+01   -0.88279E-02   -0.25755E-01    64   0.417E+00    0.189E-01
DAV:   2    -0.985166043090E+01    0.84340E-05   -0.34704E-03    48   0.519E-01    0.837E-02
DAV:   3    -0.985177365294E+01   -0.11322E-03   -0.19639E-04    56   0.126E-01    0.358E-02
DAV:   4    -0.985188230770E+01   -0.10865E-03   -0.78101E-05    48   0.683E-02    0.123E-02
DAV:   5    -0.985189882664E+01   -0.16519E-04   -0.51134E-06    48   0.207E-02
   4 F= -.98518988E+01 E0= -.98518988E+01  d E =-.396451E-01  mag=     2.0000
       N       E                     dE             d eps       ncg     rms          rms(c)
DAV:   1    -0.985504083207E+01   -0.31585E-02   -0.33196E-01    64   0.474E+00    0.216E-01
DAV:   2    -0.985504757803E+01   -0.67460E-05   -0.44801E-03    48   0.590E-01    0.966E-02
DAV:   3    -0.985513939052E+01   -0.91812E-04   -0.25169E-04    56   0.143E-01
   5 F= -.98551394E+01 E0= -.98551394E+01  d E =-.428856E-01  mag=     2.0000
