<?xml version="1.0" encoding="ISO-8859-1"?>
<modeling>
 <generator>
  <i name="program" type="string">vasp </i>
  <i name="version" type="string">5.4.4.18Apr17-6-g9f103f2a35  </i>
  <i name="subversion" type="string">(build Feb 15 2019 16:11:45) complex            parallel </i>
  <i name="platform" type="string">LinuxIFC </i>
  <i name="date" type="string">2019 04 10 </i>
  <i name="time" type="string">14:33:14 </i>
 </generator>
 <incar>
  <i type="string" name="SYSTEM"> O ATOM</i>
  <i type="string" name="PREC">normal</i>
  <i type="int" name="ISPIN">     2</i>
  <i type="int" name="IBRION">     2</i>
  <i type="int" name="NSW">    10</i>
  <v name="MAGMOM">      2.00000000      2.00000000</v>
  <i type="int" name="ISMEAR">     0</i>
  <i name="SIGMA">      0.01000000</i>
  <v type="int" name="KPOINT_BSE">    -1     0     0     0</v>
 </incar>
 <structure name="primitive_cell" >
  <crystal>
   <varray name="basis" >
    <v>       7.50000000       0.00000000       0.00000000 </v>
    <v>       0.00000000       8.00000000       0.00000000 </v>
    <v>       0.00000000       0.00000000       8.90000000 </v>
   </varray>
   <i name="volume">    534.00000000 </i>
   <varray name="rec_basis" >
    <v>       0.13333333       0.00000000       0.00000000 </v>
    <v>       0.00000000       0.12500000       0.00000000 </v>
    <v>       0.00000000       0.00000000       0.11235955 </v>
   </varray>
  </crystal>
  <varray name="positions" >
   <v>       0.00000000       0.00000000       0.00000000 </v>
   <v>       0.00000000       0.00000000       0.14274157 </v>
  </varray>
 </structure>
 <varray name="primitive_index" >
  <v type="int" >        1 </v>
  <v type="int" >        2 </v>
 </varray>
 <kpoints>
  <generation param="Gamma">
   <v type="int" name="divisions">       1        1        1 </v>
   <v name="usershift">      0.00000000       0.00000000       0.00000000 </v>
   <v name="genvec1">      1.00000000       0.00000000       0.00000000 </v>
   <v name="genvec2">      0.00000000       1.00000000       0.00000000 </v>
   <v name="genvec3">      0.00000000       0.00000000       1.00000000 </v>
   <v name="shift">      0.00000000       0.00000000       0.00000000 </v>
  </generation>
  <varray name="kpointlist" >
   <v>       0.00000000       0.00000000       0.00000000 </v>
  </varray>
  <varray name="weights" >
   <v>       1.00000000 </v>
  </varray>
 </kpoints>
 <parameters>
  <separator name="general" >
   <i type="string" name="SYSTEM">O ATOM</i>
   <i type="logical" name="LCOMPAT"> F  </i>
  </separator>
  <separator name="electronic" >
   <i type="string" name="PREC">normal</i>
   <i name="ENMAX">    400.00000000</i>
   <i name="ENAUG">    605.39200000</i>
   <i name="EDIFF">      0.00010000</i>
   <i type="int" name="IALGO">    38</i>
   <i type="int" name="IWAVPR">    11</i>
   <i type="int" name="NBANDS">    12</i>
   <i name="NELECT">     12.00000000</i>
   <i type="int" name="TURBO">     0</i>
   <i type="int" name="IRESTART">     0</i>
   <i type="int" name="NREBOOT">     0</i>
   <i type="int" name="NMIN">     0</i>
   <i name="EREF">      0.00000000</i>
   <separator name="electronic smearing" >
    <i type="int" name="ISMEAR">     0</i>
    <i name="SIGMA">      0.01000000</i>
    <i name="KSPACING">      0.50000000</i>
    <i type="logical" name="KGAMMA"> T  </i>
   </separator>
   <separator name="electronic projectors" >
    <i type="logical" name="LREAL"> F  </i>
    <v name="ROPT">      0.00000000</v>
    <i type="int" name="LMAXPAW">  -100</i>
    <i type="int" name="LMAXMIX">     2</i>
    <i type="logical" name="NLSPLINE"> F  </i>
   </separator>
   <separator name="electronic startup" >
    <i type="int" name="ISTART">     1</i>
    <i type="int" name="ICHARG">     0</i>
    <i type="int" name="INIWAV">     1</i>
   </separator>
   <separator name="electronic spin" >
    <i type="int" name="ISPIN">     2</i>
    <i type="logical" name="LNONCOLLINEAR"> F  </i>
    <v name="MAGMOM">      2.00000000      2.00000000</v>
    <i name="NUPDOWN">     -1.00000000</i>
    <i type="logical" name="LSORBIT"> F  </i>
    <v name="SAXIS">      0.00000000      0.00000000      1.00000000</v>
    <i type="logical" name="LSPIRAL"> F  </i>
    <v name="QSPIRAL">      0.00000000      0.00000000      0.00000000</v>
    <i type="logical" name="LZEROZ"> F  </i>
   </separator>
   <separator name="electronic exchange-correlation" >
    <i type="logical" name="LASPH"> F  </i>
    <i type="logical" name="LMETAGGA"> F  </i>
   </separator>
   <separator name="electronic convergence" >
    <i type="int" name="NELM">    60</i>
    <i type="int" name="NELMDL">     0</i>
    <i type="int" name="NELMIN">     2</i>
    <i name="ENINI">    400.00000000</i>
    <separator name="electronic convergence detail" >
     <i type="logical" name="LDIAG"> T  </i>
     <i type="logical" name="LSUBROT"> F  </i>
     <i name="WEIMIN">      0.00100000</i>
     <i name="EBREAK">      0.00000208</i>
     <i name="DEPER">      0.30000000</i>
     <i type="int" name="NRMM">     4</i>
     <i name="TIME">      0.40000000</i>
    </separator>
   </separator>
   <separator name="electronic mixer" >
    <i name="AMIX">      0.40000000</i>
    <i name="BMIX">      1.00000000</i>
    <i name="AMIN">      0.10000000</i>
    <i name="AMIX_MAG">      1.60000000</i>
    <i name="BMIX_MAG">      1.00000000</i>
    <separator name="electronic mixer details" >
     <i type="int" name="IMIX">     4</i>
     <i type="logical" name="MIXFIRST"> F  </i>
     <i type="int" name="MAXMIX">   -45</i>
     <i name="WC">    100.00000000</i>
     <i type="int" name="INIMIX">     1</i>
     <i type="int" name="MIXPRE">     1</i>
     <i type="int" name="MREMOVE">     5</i>
    </separator>
   </separator>
   <separator name="electronic dipolcorrection" >
    <i type="logical" name="LDIPOL"> F  </i>
    <i type="logical" name="LMONO"> F  </i>
    <i type="int" name="IDIPOL">     0</i>
    <i name="EPSILON">      1.00000000</i>
    <v name="DIPOL">   -100.00000000   -100.00000000   -100.00000000</v>
    <i name="EFIELD">      0.00000000</i>
   </separator>
  </separator>
  <separator name="grids" >
   <i type="int" name="NGX">    40</i>
   <i type="int" name="NGY">    40</i>
   <i type="int" name="NGZ">    48</i>
   <i type="int" name="NGXF">    80</i>
   <i type="int" name="NGYF">    80</i>
   <i type="int" name="NGZF">    96</i>
   <i type="logical" name="ADDGRID"> F  </i>
  </separator>
  <separator name="ionic" >
   <i type="int" name="NSW">    10</i>
   <i type="int" name="IBRION">     2</i>
   <i type="int" name="MDALGO">     0</i>
   <i type="int" name="ISIF">     2</i>
   <i name="PSTRESS">      0.00000000</i>
   <i name="EDIFFG">      0.00100000</i>
   <i type="int" name="NFREE">     1</i>
   <i name="POTIM">      0.50000000</i>
   <i name="SMASS">     -3.00000000</i>
   <i name="SCALEE">      1.00000000</i>
  </separator>
  <separator name="ionic md" >
   <i name="TEBEG">      0.00010000</i>
   <i name="TEEND">      0.00010000</i>
   <i type="int" name="NBLOCK">     1</i>
   <i type="int" name="KBLOCK">    10</i>
   <i type="int" name="NPACO">   256</i>
   <i name="APACO">     16.00000000</i>
  </separator>
  <separator name="symmetry" >
   <i type="int" name="ISYM">     2</i>
   <i name="SYMPREC">      0.00001000</i>
  </separator>
  <separator name="dos" >
   <i type="int" name="LORBIT">     0</i>
   <v name="RWIGS">     -1.00000000</v>
   <i type="int" name="NEDOS">   301</i>
   <i name="EMIN">     10.00000000</i>
   <i name="EMAX">    -10.00000000</i>
   <i name="EFERMI">      0.00000000</i>
  </separator>
  <separator name="writing" >
   <i type="int" name="NWRITE">     2</i>
   <i type="logical" name="LWAVE"> T  </i>
   <i type="logical" name="LDOWNSAMPLE"> F  </i>
   <i type="logical" name="LCHARG"> T  </i>
   <i type="logical" name="LPARD"> F  </i>
   <i type="logical" name="LVTOT"> F  </i>
   <i type="logical" name="LVHAR"> F  </i>
   <i type="logical" name="LELF"> F  </i>
   <i type="logical" name="LOPTICS"> F  </i>
   <v name="STM">      0.00000000      0.00000000      0.00000000      0.00000000      0.00000000      0.00000000      0.00000000</v>
  </separator>
  <separator name="performance" >
   <i type="int" name="NPAR">     1</i>
   <i type="int" name="NSIM">     4</i>
   <i type="int" name="NBLK">    -1</i>
   <i type="logical" name="LPLANE"> T  </i>
   <i type="logical" name="LSCALAPACK"> T  </i>
   <i type="logical" name="LSCAAWARE"> F  </i>
   <i type="logical" name="LSCALU"> F  </i>
   <i type="logical" name="LASYNC"> F  </i>
   <i type="logical" name="LORBITALREAL"> F  </i>
  </separator>
  <separator name="miscellaneous" >
   <i type="int" name="IDIOT">     3</i>
   <i type="int" name="ISPECIAL">     0</i>
   <i type="logical" name="LMUSIC"> F  </i>
   <v name="POMASS">     16.00000000</v>
   <v name="DARWINR">      0.00000000</v>
   <v name="DARWINV">      1.00000000</v>
   <i type="logical" name="LCORR"> T  </i>
  </separator>
  <i type="logical" name="GGA_COMPAT"> T  </i>
  <i type="logical" name="LBERRY"> F  </i>
  <i type="int" name="ICORELEVEL">     0</i>
  <i type="logical" name="LDAU"> F  </i>
  <i type="int" name="I_CONSTRAINED_M">     0</i>
  <separator name="electronic exchange-correlation" >
   <i type="string" name="GGA">--</i>
   <i type="int" name="VOSKOWN">     0</i>
   <i type="logical" name="LHFCALC"> F  </i>
   <i type="string" name="PRECFOCK"></i>
   <i type="logical" name="LSYMGRAD"> F  </i>
   <i type="logical" name="LHFONE"> F  </i>
   <i type="logical" name="LRHFCALC"> F  </i>
   <i type="logical" name="LTHOMAS"> F  </i>
   <i type="logical" name="LMODELHF"> F  </i>
   <i name="ENCUT4O">     -1.00000000</i>
   <i type="int" name="EXXOEP">     0</i>
   <i type="int" name="FOURORBIT">     0</i>
   <i name="AEXX">      0.00000000</i>
   <i name="HFALPHA">      0.00000000</i>
   <i name="MCALPHA">      0.00000000</i>
   <i name="ALDAX">      1.00000000</i>
   <i name="AGGAX">      1.00000000</i>
   <i name="ALDAC">      1.00000000</i>
   <i name="AGGAC">      1.00000000</i>
   <i type="int" name="NKREDX">     1</i>
   <i type="int" name="NKREDY">     1</i>
   <i type="int" name="NKREDZ">     1</i>
   <i type="logical" name="SHIFTRED"> F  </i>
   <i type="logical" name="ODDONLY"> F  </i>
   <i type="logical" name="EVENONLY"> F  </i>
   <i type="int" name="LMAXFOCK">     0</i>
   <i type="int" name="NMAXFOCKAE">     0</i>
   <i type="logical" name="LFOCKAEDFT"> F  </i>
   <i name="HFSCREEN">      0.00000000</i>
   <i name="HFSCREENC">      0.00000000</i>
   <i type="int" name="NBANDSGWLOW">     0</i>
  </separator>
  <separator name="vdW DFT" >
   <i type="logical" name="LUSE_VDW"> F  </i>
   <i name="Zab_VDW">     -0.84910000</i>
   <i name="PARAM1">      0.12340000</i>
   <i name="PARAM2">      1.00000000</i>
   <i name="PARAM3">      0.00000000</i>
  </separator>
  <separator name="model GW" >
   <i type="int" name="MODEL_GW">     0</i>
   <i name="MODEL_EPS0">    160.20000000</i>
   <i name="MODEL_ALPHA">      1.00000000</i>
  </separator>
  <separator name="linear response parameters" >
   <i type="logical" name="LEPSILON"> F  </i>
   <i type="logical" name="LRPA"> F  </i>
   <i type="logical" name="LNABLA"> F  </i>
   <i type="logical" name="LVEL"> F  </i>
   <i type="int" name="KINTER">     0</i>
   <i name="CSHIFT">      0.10000000</i>
   <i name="OMEGAMAX">     -1.00000000</i>
   <i name="DEG_THRESHOLD">      0.00200000</i>
   <i name="RTIME">     -0.10000000</i>
   <i name="WPLASMAI">      0.00000000</i>
   <v name="DFIELD">      0.00000000      0.00000000      0.00000000</v>
   <v name="WPLASMA">      0.00000000      0.00000000      0.00000000      0.00000000      0.00000000      0.00000000      0.00000000      0.00000000      0.00000000</v>
  </separator>
  <separator name="orbital magnetization" >
   <i type="logical" name="NUCIND"> F  </i>
   <v name="MAGPOS">      0.00000000      0.00000000      0.00000000</v>
   <i type="logical" name="LNICSALL"> T  </i>
   <i type="logical" name="ORBITALMAG"> F  </i>
   <i type="logical" name="LMAGBLOCH"> F  </i>
   <i type="logical" name="LCHIMAG"> F  </i>
   <i type="logical" name="LGAUGE"> T  </i>
   <i type="int" name="MAGATOM">     0</i>
   <v name="MAGDIPOL">      0.00000000      0.00000000      0.00000000</v>
   <v name="AVECCONST">      0.00000000      0.00000000      0.00000000</v>
  </separator>
  <separator name="response functions" >
   <i type="logical" name="LADDER"> F  </i>
   <i type="logical" name="LRPAFORCE"> F  </i>
   <i type="logical" name="LFXC"> F  </i>
   <i type="logical" name="LHARTREE"> T  </i>
   <i type="int" name="IBSE">     0</i>
   <v type="int" name="KPOINT">    -1     0     0     0</v>
   <i type="logical" name="LTCTE"> F  </i>
   <i type="logical" name="LTETE"> F  </i>
   <i type="logical" name="LTRIPLET"> F  </i>
   <i type="logical" name="LFXCEPS"> F  </i>
   <i type="logical" name="LFXHEG"> F  </i>
   <i type="int" name="NATURALO">     2</i>
   <i type="logical" name="L2ORDER"> F  </i>
   <i type="logical" name="LMP2LT"> F  </i>
   <i type="logical" name="LUSEW"> F  </i>
   <i name="ENCUTGW">     -2.00000000</i>
   <i name="ENCUTGWSOFT">     -2.00000000</i>
   <i name="ENCUTLF">     -1.00000000</i>
   <i type="int" name="LMAXMP2">    -1</i>
   <i name="SCISSOR">      0.00000000</i>
   <i type="int" name="NOMEGA">     0</i>
   <i type="int" name="NOMEGAR">     0</i>
   <i type="int" name="NBANDSGW">    -1</i>
   <i type="int" name="NBANDSO">    -1</i>
   <i type="int" name="NBANDSV">    -1</i>
   <i type="int" name="NELM">     1</i>
   <i type="int" name="NELMHF">     1</i>
   <i type="int" name="DIM">     3</i>
   <i type="int" name="ANTIRES">     0</i>
   <i name="OMEGAMAX">    -30.00000000</i>
   <i name="OMEGAMIN">    -30.00000000</i>
   <i name="OMEGATL">   -200.00000000</i>
   <i type="int" name="OMEGAGRID">   140</i>
   <i name="CSHIFT">     -0.10000000</i>
   <i type="logical" name="SELFENERGY"> F  </i>
   <i type="logical" name="LSPECTRAL"> F  </i>
   <i type="logical" name="LSPECTRALGW"> F  </i>
   <i type="logical" name="LSINGLES"> F  </i>
   <i type="logical" name="LFERMIGW"> F  </i>
   <i type="logical" name="ODDONLYGW"> F  </i>
   <i type="logical" name="EVENONLYGW"> F  </i>
   <i type="int" name="NKREDLFX">     1</i>
   <i type="int" name="NKREDLFY">     1</i>
   <i type="int" name="NKREDLFZ">     1</i>
   <i type="int" name="MAXMEM">  2800</i>
   <i type="int" name="TELESCOPE">     0</i>
   <i type="int" name="TAUPAR">     1</i>
   <i type="int" name="OMEGAPAR">    -1</i>
   <i name="LAMBDA">      1.00000000</i>
  </separator>
  <separator name="External order field" >
   <i name="OFIELD_KAPPA">      0.00000000</i>
   <v name="OFIELD_K">      0.00000000      0.00000000      0.00000000</v>
   <i name="OFIELD_Q6_NEAR">      0.00000000</i>
   <i name="OFIELD_Q6_FAR">      0.00000000</i>
   <i name="OFIELD_A">      0.00000000</i>
  </separator>
 </parameters>
 <atominfo>
  <atoms>       2 </atoms>
  <types>       1 </types>
  <array name="atoms" >
   <dimension dim="1">ion</dimension>
   <field type="string">element</field>
   <field type="int">atomtype</field>
   <set>
    <rc><c>O </c><c>   1</c></rc>
    <rc><c>O </c><c>   1</c></rc>
   </set>
  </array>
  <array name="atomtypes" >
   <dimension dim="1">type</dimension>
   <field type="int">atomspertype</field>
   <field type="string">element</field>
   <field>mass</field>
   <field>valence</field>
   <field type="string">pseudopotential</field>
   <set>
    <rc><c>   2</c><c>O </c><c>     16.00000000</c><c>      6.00000000</c><c>  PAW_PBE O 08Apr2002                   </c></rc>
   </set>
  </array>
 </atominfo>
 <structure name="initialpos" >
  <crystal>
   <varray name="basis" >
    <v>       7.50000000       0.00000000       0.00000000 </v>
    <v>       0.00000000       8.00000000       0.00000000 </v>
    <v>       0.00000000       0.00000000       8.90000000 </v>
   </varray>
   <i name="volume">    534.00000000 </i>
   <varray name="rec_basis" >
    <v>       0.13333333       0.00000000       0.00000000 </v>
    <v>       0.00000000       0.12500000       0.00000000 </v>
    <v>       0.00000000       0.00000000       0.11235955 </v>
   </varray>
  </crystal>
  <varray name="positions" >
   <v>       0.00000000       0.00000000       0.00000000 </v>
   <v>       0.00000000       0.00000000       0.14274157 </v>
  </varray>
 </structure>
 <calculation>
  <scstep>
   <time name="dav">    0.48    0.48</time>
   <time name="total">    1.96    1.96</time>
   <energy>
    <i name="alphaZ">      1.04085735 </i>
    <i name="ewald">     50.28720320 </i>
    <i name="hartreedc">   -788.73117038 </i>
    <i name="XCdc">     55.06861175 </i>
    <i name="pawpsdc">    872.76646234 </i>
    <i name="pawaedc">   -876.21536793 </i>
    <i name="eentropy">     -0.00000000 </i>
    <i name="bandstr">   -188.55524220 </i>
    <i name="atom">    864.52639207 </i>
    <i name="e_fr_energy">     -9.81225379 </i>
    <i name="e_wo_entrp">     -9.81225379 </i>
    <i name="e_0_energy">     -9.81225379 </i>
   </energy>
  </scstep>
  <scstep>
   <time name="dav">    0.51    0.51</time>
   <time name="total">    1.86    2.09</time>
   <energy>
    <i name="alphaZ">      1.04085735 </i>
    <i name="ewald">     50.28720320 </i>
    <i name="hartreedc">   -788.72709753 </i>
    <i name="XCdc">     55.06838067 </i>
    <i name="pawpsdc">    872.76124979 </i>
    <i name="pawaedc">   -876.21011713 </i>
    <i name="eentropy">     -0.00000000 </i>
    <i name="bandstr">   -188.55912220 </i>
    <i name="atom">    864.52639207 </i>
    <i name="e_fr_energy">     -9.81225377 </i>
    <i name="e_wo_entrp">     -9.81225377 </i>
    <i name="e_0_energy">     -9.81225377 </i>
   </energy>
  </scstep>
  <structure>
   <crystal>
    <varray name="basis" >
     <v>       7.50000000       0.00000000       0.00000000 </v>
     <v>       0.00000000       8.00000000       0.00000000 </v>
     <v>       0.00000000       0.00000000       8.90000000 </v>
    </varray>
    <i name="volume">    534.00000000 </i>
    <varray name="rec_basis" >
     <v>       0.13333333       0.00000000       0.00000000 </v>
     <v>       0.00000000       0.12500000       0.00000000 </v>
     <v>       0.00000000       0.00000000       0.11235955 </v>
    </varray>
   </crystal>
   <varray name="positions" >
    <v>       0.00000000       0.00000000       0.00000000 </v>
    <v>       0.00000000       0.00000000       0.14274157 </v>
   </varray>
  </structure>
  <varray name="forces" >
   <v>       0.00000000       0.00000000       2.27953904 </v>
   <v>       0.00000000       0.00000000      -2.27953904 </v>
  </varray>
  <varray name="stress" >
   <v>      -4.75821344       0.00000000       0.00000000 </v>
   <v>       0.00000000      -4.74977909       0.00000000 </v>
   <v>       0.00000000       0.00000000     -12.19813026 </v>
  </varray>
  <energy>
   <i name="e_fr_energy">     -9.81225377 </i>
   <i name="e_wo_entrp">     -9.81225377 </i>
   <i name="e_0_energy">     -0.00000000 </i>
  </energy>
  <time name="totalsc">    9.61    9.85</time>
 </calculation>
 <calculation>
  <scstep>
   <time name="dav">    0.49    0.49</time>
   <time name="total">    1.96    1.96</time>
   <energy>
    <i name="alphaZ">      1.04085735 </i>
    <i name="ewald">    135.05568823 </i>
    <i name="hartreedc">   -847.18541905 </i>
    <i name="XCdc">     56.25235300 </i>
    <i name="pawpsdc">    872.75761469 </i>
    <i name="pawaedc">   -876.20645822 </i>
    <i name="eentropy">     -0.00000000 </i>
    <i name="bandstr">   -213.97689058 </i>
    <i name="atom">    864.52639207 </i>
    <i name="e_fr_energy">     -7.73586252 </i>
    <i name="e_wo_entrp">     -7.73586252 </i>
    <i name="e_0_energy">     -7.73586252 </i>
   </energy>
  </scstep>
  <scstep>
   <time name="dav">    0.45    0.45</time>
   <time name="total">    1.89    1.89</time>
   <energy>
    <i name="e_fr_energy">     -7.89140714 </i>
    <i name="e_wo_entrp">     -7.89140714 </i>
    <i name="e_0_energy">     -7.89140714 </i>
   </energy>
  </scstep>
  <scstep>
   <time name="dav">    0.50    0.50</time>
   <time name="total">    1.96    1.96</time>
   <energy>
    <i name="e_fr_energy">     -7.88864960 </i>
    <i name="e_wo_entrp">     -7.88864960 </i>
    <i name="e_0_energy">     -7.88864960 </i>
   </energy>
  </scstep>
  <scstep>
   <time name="dav">    0.48    0.48</time>
   <time name="total">    1.93    1.93</time>
   <energy>
    <i name="e_fr_energy">     -7.87623881 </i>
    <i name="e_wo_entrp">     -7.87623881 </i>
    <i name="e_0_energy">     -7.87623881 </i>
   </energy>
  </scstep>
  <scstep>
   <time name="dav">    0.46    0.46</time>
   <time name="total">    1.90    1.90</time>
   <energy>
    <i name="e_fr_energy">     -7.88130958 </i>
    <i name="e_wo_entrp">     -7.88130958 </i>
    <i name="e_0_energy">     -7.88130958 </i>
   </energy>
  </scstep>
  <scstep>
   <time name="dav">    0.48    0.48</time>
   <time name="total">    1.92    1.92</time>
   <energy>
    <i name="e_fr_energy">     -7.88180431 </i>
    <i name="e_wo_entrp">     -7.88180431 </i>
    <i name="e_0_energy">     -7.88180431 </i>
   </energy>
  </scstep>
  <scstep>
   <time name="dav">    0.45    0.45</time>
   <time name="total">    1.89    1.89</time>
   <energy>
    <i name="e_fr_energy">     -7.88288369 </i>
    <i name="e_wo_entrp">     -7.88288369 </i>
    <i name="e_0_energy">     -7.88288369 </i>
   </energy>
  </scstep>
  <scstep>
   <time name="dav">    0.48    0.48</time>
   <time name="total">    1.91    1.91</time>
   <energy>
    <i name="e_fr_energy">     -7.88331727 </i>
    <i name="e_wo_entrp">     -7.88331727 </i>
    <i name="e_0_energy">     -7.88331727 </i>
   </energy>
  </scstep>
  <scstep>
   <time name="dav">    0.45    0.45</time>
   <time name="total">    1.88    1.88</time>
   <energy>
    <i name="e_fr_energy">     -7.88394174 </i>
    <i name="e_wo_entrp">     -7.88394174 </i>
    <i name="e_0_energy">     -7.88394174 </i>
   </energy>
  </scstep>
  <scstep>
   <time name="dav">    0.48    0.48</time>
   <time name="total">    1.94    1.94</time>
   <energy>
    <i name="e_fr_energy">     -7.88413559 </i>
    <i name="e_wo_entrp">     -7.88413559 </i>
    <i name="e_0_energy">     -7.88413559 </i>
   </energy>
  </scstep>
  <scstep>
   <time name="dav">    0.46    0.46</time>
   <time name="total">    1.90    1.90</time>
   <energy>
    <i name="e_fr_energy">     -7.88427547 </i>
    <i name="e_wo_entrp">     -7.88427547 </i>
    <i name="e_0_energy">     -7.88427547 </i>
   </energy>
  </scstep>
  <scstep>
   <time name="dav">    0.45    0.45</time>
   <time name="total">    1.78    2.02</time>
   <energy>
    <i name="alphaZ">      1.04085735 </i>
    <i name="ewald">    135.05568823 </i>
    <i name="hartreedc">   -859.36629827 </i>
    <i name="XCdc">     56.95206818 </i>
    <i name="pawpsdc">   1078.65489419 </i>
    <i name="pawaedc">  -1082.60337976 </i>
    <i name="eentropy">     -0.00000000 </i>
    <i name="bandstr">   -202.14456914 </i>
    <i name="atom">    864.52639207 </i>
    <i name="e_fr_energy">     -7.88434715 </i>
    <i name="e_wo_entrp">     -7.88434715 </i>
    <i name="e_0_energy">     -7.88434715 </i>
   </energy>
  </scstep>
  <structure>
   <crystal>
    <varray name="basis" >
     <v>       7.50000000       0.00000000       0.00000000 </v>
     <v>       0.00000000       8.00000000       0.00000000 </v>
     <v>       0.00000000       0.00000000       8.90000000 </v>
    </varray>
    <i name="volume">    534.00000000 </i>
    <varray name="rec_basis" >
     <v>       0.13333333       0.00000000       0.00000000 </v>
     <v>       0.00000000       0.12500000       0.00000000 </v>
     <v>       0.00000000       0.00000000       0.11235955 </v>
    </varray>
   </crystal>
   <varray name="positions" >
    <v>       0.00000000       0.00000000       0.01235629 </v>
    <v>       0.00000000       0.00000000       0.13038528 </v>
   </varray>
  </structure>
  <varray name="forces" >
   <v>       0.00000000       0.00000000     -26.98411938 </v>
   <v>       0.00000000       0.00000000      26.98411938 </v>
  </varray>
  <varray name="stress" >
   <v>      -4.74656520       0.00000000       0.00000000 </v>
   <v>       0.00000000      -4.74237992       0.00000000 </v>
   <v>       0.00000000       0.00000000      81.12843315 </v>
  </varray>
  <energy>
   <i name="e_fr_energy">     -7.88434715 </i>
   <i name="e_wo_entrp">     -7.88434715 </i>
   <i name="e_0_energy">     -0.00000000 </i>
  </energy>
  <time name="totalsc">   26.25   26.49</time>
 </calculation>
 <calculation>
  <scstep>
   <time name="dav">    0.54    0.54</time>
   <time name="total">    1.96    2.17</time>
   <energy>
    <i name="alphaZ">      1.04085735 </i>
    <i name="ewald">     55.80796820 </i>
    <i name="hartreedc">   -804.85832177 </i>
    <i name="XCdc">     55.87594367 </i>
    <i name="pawpsdc">   1078.67404004 </i>
    <i name="pawaedc">  -1082.62256683 </i>
    <i name="eentropy">     -0.00000000 </i>
    <i name="bandstr">   -178.33909416 </i>
    <i name="atom">    864.52639207 </i>
    <i name="e_fr_energy">     -9.89478144 </i>
    <i name="e_wo_entrp">     -9.89478144 </i>
    <i name="e_0_energy">     -9.89478144 </i>
   </energy>
  </scstep>
  <scstep>
   <time name="dav">    0.50    0.50</time>
   <time name="total">    1.92    1.92</time>
   <energy>
    <i name="e_fr_energy">     -9.79740889 </i>
    <i name="e_wo_entrp">     -9.79740889 </i>
    <i name="e_0_energy">     -9.79740889 </i>
   </energy>
  </scstep>
  <scstep>
   <time name="dav">    0.53    0.53</time>
   <time name="total">    1.95    1.95</time>
   <energy>
    <i name="e_fr_energy">     -9.83151624 </i>
    <i name="e_wo_entrp">     -9.83151624 </i>
    <i name="e_0_energy">     -9.83151624 </i>
   </energy>
  </scstep>
  <scstep>
   <time name="dav">    0.51    0.51</time>
   <time name="total">    1.93    1.93</time>
   <energy>
    <i name="e_fr_energy">     -9.83814448 </i>
    <i name="e_wo_entrp">     -9.83814448 </i>
    <i name="e_0_energy">     -9.83814448 </i>
   </energy>
  </scstep>
  <scstep>
   <time name="dav">    0.45    0.45</time>
   <time name="total">    1.89    1.89</time>
   <energy>
    <i name="e_fr_energy">     -9.84025448 </i>
    <i name="e_wo_entrp">     -9.84025448 </i>
    <i name="e_0_energy">     -9.84025448 </i>
   </energy>
  </scstep>
  <scstep>
   <time name="dav">    0.49    0.49</time>
   <time name="total">    1.91    1.91</time>
   <energy>
    <i name="e_fr_energy">     -9.84165913 </i>
    <i name="e_wo_entrp">     -9.84165913 </i>
    <i name="e_0_energy">     -9.84165913 </i>
   </energy>
  </scstep>
  <scstep>
   <time name="dav">    0.46    0.70</time>
   <time name="total">    1.90    2.14</time>
   <energy>
    <i name="e_fr_energy">     -9.84196087 </i>
    <i name="e_wo_entrp">     -9.84196087 </i>
    <i name="e_0_energy">     -9.84196087 </i>
   </energy>
  </scstep>
  <scstep>
   <time name="dav">    0.52    0.52</time>
   <time name="total">    1.97    1.97</time>
   <energy>
    <i name="e_fr_energy">     -9.84225137 </i>
    <i name="e_wo_entrp">     -9.84225137 </i>
    <i name="e_0_energy">     -9.84225137 </i>
   </energy>
  </scstep>
  <scstep>
   <time name="dav">    0.49    0.49</time>
   <time name="total">    1.93    1.93</time>
   <energy>
    <i name="e_fr_energy">     -9.84255864 </i>
    <i name="e_wo_entrp">     -9.84255864 </i>
    <i name="e_0_energy">     -9.84255864 </i>
   </energy>
  </scstep>
  <scstep>
   <time name="dav">    0.48    0.48</time>
   <time name="total">    1.92    1.92</time>
   <energy>
    <i name="e_fr_energy">     -9.84270855 </i>
    <i name="e_wo_entrp">     -9.84270855 </i>
    <i name="e_0_energy">     -9.84270855 </i>
   </energy>
  </scstep>
  <scstep>
   <time name="dav">    0.46    0.46</time>
   <time name="total">    1.91    1.91</time>
   <energy>
    <i name="e_fr_energy">     -9.84284100 </i>
    <i name="e_wo_entrp">     -9.84284100 </i>
    <i name="e_0_energy">     -9.84284100 </i>
   </energy>
  </scstep>
  <scstep>
   <time name="dav">    0.48    0.48</time>
   <time name="total">    1.81    1.81</time>
   <energy>
    <i name="alphaZ">      1.04085735 </i>
    <i name="ewald">     55.80796820 </i>
    <i name="hartreedc">   -793.58463044 </i>
    <i name="XCdc">     55.18747493 </i>
    <i name="pawpsdc">    884.54079625 </i>
    <i name="pawaedc">   -888.01093191 </i>
    <i name="eentropy">     -0.00000000 </i>
    <i name="bandstr">   -189.35079921 </i>
    <i name="atom">    864.52639207 </i>
    <i name="e_fr_energy">     -9.84287276 </i>
    <i name="e_wo_entrp">     -9.84287276 </i>
    <i name="e_0_energy">     -9.84287276 </i>
   </energy>
  </scstep>
  <structure>
   <crystal>
    <varray name="basis" >
     <v>       7.50000000       0.00000000       0.00000000 </v>
     <v>       0.00000000       8.00000000       0.00000000 </v>
     <v>       0.00000000       0.00000000       8.90000000 </v>
    </varray>
    <i name="volume">    534.00000000 </i>
    <varray name="rec_basis" >
     <v>       0.13333333       0.00000000       0.00000000 </v>
     <v>       0.00000000       0.12500000       0.00000000 </v>
     <v>       0.00000000       0.00000000       0.11235955 </v>
    </varray>
   </crystal>
   <varray name="positions" >
    <v>       0.00000000       0.00000000       0.00096251 </v>
    <v>       0.00000000       0.00000000       0.14177906 </v>
   </varray>
  </structure>
  <varray name="forces" >
   <v>       0.00000000       0.00000000       1.27715636 </v>
   <v>       0.00000000       0.00000000      -1.27715636 </v>
  </varray>
  <varray name="stress" >
   <v>      -4.75120502       0.00000000       0.00000000 </v>
   <v>       0.00000000      -4.74233448       0.00000000 </v>
   <v>       0.00000000       0.00000000      -8.37671697 </v>
  </varray>
  <energy>
   <i name="e_fr_energy">     -9.84287276 </i>
   <i name="e_wo_entrp">     -9.84287276 </i>
   <i name="e_0_energy">     -0.00000000 </i>
  </energy>
  <time name="totalsc">   26.39   26.84</time>
 </calculation>
 <calculation>
  <scstep>
   <time name="dav">    0.55    0.55</time>
   <time name="total">    1.99    1.99</time>
   <energy>
    <i name="alphaZ">      1.04085735 </i>
    <i name="ewald">     58.82476773 </i>
    <i name="hartreedc">   -795.81981345 </i>
    <i name="XCdc">     55.22667697 </i>
    <i name="pawpsdc">    884.53508901 </i>
    <i name="pawaedc">   -888.00527794 </i>
    <i name="eentropy">     -0.00000000 </i>
    <i name="bandstr">   -190.18036060 </i>
    <i name="atom">    864.52639207 </i>
    <i name="e_fr_energy">     -9.85166886 </i>
    <i name="e_wo_entrp">     -9.85166886 </i>
    <i name="e_0_energy">     -9.85166886 </i>
   </energy>
  </scstep>
  <scstep>
   <time name="dav">    0.46    0.46</time>
   <time name="total">    1.90    1.90</time>
   <energy>
    <i name="e_fr_energy">     -9.85166043 </i>
    <i name="e_wo_entrp">     -9.85166043 </i>
    <i name="e_0_energy">     -9.85166043 </i>
   </energy>
  </scstep>
  <scstep>
   <time name="dav">    0.50    0.50</time>
   <time name="total">    1.95    1.95</time>
   <energy>
    <i name="e_fr_energy">     -9.85177365 </i>
    <i name="e_wo_entrp">     -9.85177365 </i>
    <i name="e_0_energy">     -9.85177365 </i>
   </energy>
  </scstep>
  <scstep>
   <time name="dav">    0.47    0.47</time>
   <time name="total">    1.94    1.94</time>
   <energy>
    <i name="e_fr_energy">     -9.85188231 </i>
    <i name="e_wo_entrp">     -9.85188231 </i>
    <i name="e_0_energy">     -9.85188231 </i>
   </energy>
  </scstep>
  <scstep>
   <time name="dav">    0.46    0.46</time>
   <time name="total">    1.79    1.79</time>
   <energy>
    <i name="alphaZ">      1.04085735 </i>
    <i name="ewald">     58.82476773 </i>
    <i name="hartreedc">   -796.23949819 </i>
    <i name="XCdc">     55.25324063 </i>
    <i name="pawpsdc">    890.57082925 </i>
    <i name="pawaedc">   -894.05302143 </i>
    <i name="eentropy">     -0.00000000 </i>
    <i name="bandstr">   -189.77546624 </i>
    <i name="atom">    864.52639207 </i>
    <i name="e_fr_energy">     -9.85189883 </i>
    <i name="e_wo_entrp">     -9.85189883 </i>
    <i name="e_0_energy">     -9.85189883 </i>
   </energy>
  </scstep>
  <structure>
   <crystal>
    <varray name="basis" >
     <v>       7.50000000       0.00000000       0.00000000 </v>
     <v>       0.00000000       8.00000000       0.00000000 </v>
     <v>       0.00000000       0.00000000       8.90000000 </v>
    </varray>
    <i name="volume">    534.00000000 </i>
    <varray name="rec_basis" >
     <v>       0.13333333       0.00000000       0.00000000 </v>
     <v>       0.00000000       0.12500000       0.00000000 </v>
     <v>       0.00000000       0.00000000       0.11235955 </v>
    </varray>
   </crystal>
   <varray name="positions" >
    <v>       0.00000000       0.00000000       0.00147741 </v>
    <v>       0.00000000       0.00000000       0.14126416 </v>
   </varray>
  </structure>
  <varray name="forces" >
   <v>       0.00000000       0.00000000       0.68585239 </v>
   <v>       0.00000000       0.00000000      -0.68585239 </v>
  </varray>
  <varray name="stress" >
   <v>      -4.75554156       0.00000000       0.00000000 </v>
   <v>       0.00000000      -4.74682859       0.00000000 </v>
   <v>       0.00000000       0.00000000      -6.18382239 </v>
  </varray>
  <energy>
   <i name="e_fr_energy">     -9.85189883 </i>
   <i name="e_wo_entrp">     -9.85189883 </i>
   <i name="e_0_energy">     -0.00000000 </i>
  </energy>
  <time name="totalsc">   12.98   12.98</time>
 </calculation>
 <calculation>
  <scstep>
   <time name="dav">    0.56    0.81</time>
   <time name="total">    2.00    2.25</time>
   <energy>
    <i name="alphaZ">      1.04085735 </i>
    <i name="ewald">     62.29210631 </i>
    <i name="hartreedc">   -798.78144397 </i>
    <i name="XCdc">     55.29823470 </i>
    <i name="pawpsdc">    891.02945173 </i>
    <i name="pawaedc">   -894.51190099 </i>
    <i name="eentropy">     -0.00000000 </i>
    <i name="bandstr">   -190.74873804 </i>
    <i name="atom">    864.52639207 </i>
    <i name="e_fr_energy">     -9.85504083 </i>
    <i name="e_wo_entrp">     -9.85504083 </i>
    <i name="e_0_energy">     -9.85504083 </i>
   </energy>
  </scstep>
  <scstep>
   <time name="dav">    0.46    0.46</time>
   <time name="total">    1.90    1.90</time>
   <energy>
    <i name="e_fr_energy">     -9.85504758 </i>
    <i name="e_wo_entrp">     -9.85504758 </i>
    <i name="e_0_energy">     -9.85504758 </i>
   </energy>
  </scstep>
  <scstep>
   <time name="dav">    0.51    0.51</time>
   <time name="total">    1.85    1.85</time>
   <energy>
    <i name="alphaZ">      1.04085735 </i>
    <i name="ewald">     62.29210631 </i>
    <i name="hartreedc">   -799.19865938 </i>
    <i name="XCdc">     55.32472360 </i>
    <i name="pawpsdc">    895.95961921 </i>
    <i name="pawaedc">   -899.45293339 </i>
    <i name="eentropy">     -0.00000000 </i>
    <i name="bandstr">   -190.34724515 </i>
    <i name="atom">    864.52639207 </i>
    <i name="e_fr_energy">     -9.85513939 </i>
    <i name="e_wo_entrp">     -9.85513939 </i>
    <i name="e_0_energy">     -9.85513939 </i>
   </energy>
  </scstep>
  <structure>
   <crystal>
    <varray name="basis" >
     <v>       7.50000000       0.00000000       0.00000000 </v>
     <v>       0.00000000       8.00000000       0.00000000 </v>
     <v>       0.00000000       0.00000000       8.90000000 </v>
    </varray>
    <i name="volume">    534.00000000 </i>
    <varray name="rec_basis" >
     <v>       0.13333333       0.00000000       0.00000000 </v>
     <v>       0.00000000       0.12500000       0.00000000 </v>
     <v>       0.00000000       0.00000000       0.11235955 </v>
    </varray>
   </crystal>
   <varray name="positions" >
    <v>       0.00000000       0.00000000       0.00205983 </v>
    <v>       0.00000000       0.00000000       0.14068174 </v>
   </varray>
  </structure>
  <varray name="forces" >
   <v>       0.00000000       0.00000000      -0.01944394 </v>
   <v>       0.00000000       0.00000000       0.01944394 </v>
  </varray>
  <varray name="stress" >
   <v>      -4.47486910       0.00000000       0.00000000 </v>
   <v>       0.00000000      -4.46521800       0.00000000 </v>
   <v>       0.00000000       0.00000000      -3.41927493 </v>
  </varray>
  <energy>
   <i name="e_fr_energy">     -9.85513939 </i>
   <i name="e_wo_entrp">     -9.85513939 </i>
   <i name="e_0_energy">     -0.00000000 </i>
  </energy>
  <time name="totalsc">    9.04    9.29</time>
  <eigenvalues>
   <array>
    <dimension dim="1">band</dimension>
    <dimension dim="2">kpoint</dimension>
    <dimension dim="3">spin</dimension>
    <field>eigene</field>
    <field>occ</field>
    <set>
     <set comment="spin 1">
      <set comment="kpoint 1">
       <r>  -32.3477    1.0000 </r>
       <r>  -20.4706    1.0000 </r>
       <r>  -13.2376    1.0000 </r>
       <r>  -13.0863    1.0000 </r>
       <r>  -13.0860    1.0000 </r>
       <r>   -6.7671    1.0000 </r>
       <r>   -6.7636    1.0000 </r>
       <r>   -0.4050    0.0000 </r>
       <r>    1.0143    0.0000 </r>
       <r>    1.5512    0.0000 </r>
       <r>    1.7628    0.0000 </r>
       <r>    2.0379    0.0000 </r>
      </set>
     </set>
     <set comment="spin 2">
      <set comment="kpoint 1">
       <r>  -31.1222    1.0000 </r>
       <r>  -18.6728    1.0000 </r>
       <r>  -12.3089    1.0000 </r>
       <r>  -11.2423    1.0000 </r>
       <r>  -11.2420    1.0000 </r>
       <r>   -4.4923    0.0000 </r>
       <r>   -4.4894    0.0000 </r>
       <r>   -0.2345    0.0000 </r>
       <r>    1.3706    0.0000 </r>
       <r>    1.7382    0.0000 </r>
       <r>    1.9718    0.0000 </r>
       <r>    2.1685    0.0000 </r>
      </set>
     </set>
    </set>
   </array>
  </eigenvalues>
  <separator name="orbital magnetization" >
   <v name="MAGDIPOLOUT">      0.00000000      0.00000000      0.00000000</v>
  </separator>
  <dos>
   <i name="efermi">     -6.70505417 </i>
   <total>
    <array>
     <dimension dim="1">gridpoints</dimension>
     <dimension dim="2">spin</dimension>
     <field>energy</field>
     <field>total</field>
     <field>integrated</field>
     <set>
      <set comment="spin 1">
       <r>   -34.0736     0.0000     0.0000 </r>
       <r>   -33.9470     0.0000     0.0000 </r>
       <r>   -33.8204     0.0000     0.0000 </r>
       <r>   -33.6939     0.0000     0.0000 </r>
       <r>   -33.5673     0.0000     0.0000 </r>
       <r>   -33.4408     0.0000     0.0000 </r>
       <r>   -33.3142     0.0000     0.0000 </r>
       <r>   -33.1876     0.0000     0.0000 </r>
       <r>   -33.0611     0.0000     0.0000 </r>
       <r>   -32.9345     0.0000     0.0000 </r>
       <r>   -32.8080     0.0000     0.0000 </r>
       <r>   -32.6814     0.0000     0.0000 </r>
       <r>   -32.5548     0.0000     0.0000 </r>
       <r>   -32.4283     0.0000     0.0000 </r>
       <r>   -32.3017     7.9014     1.0000 </r>
       <r>   -32.1752     0.0000     1.0000 </r>
       <r>   -32.0486     0.0000     1.0000 </r>
       <r>   -31.9220     0.0000     1.0000 </r>
       <r>   -31.7955     0.0000     1.0000 </r>
       <r>   -31.6689     0.0000     1.0000 </r>
       <r>   -31.5424     0.0000     1.0000 </r>
       <r>   -31.4158     0.0000     1.0000 </r>
       <r>   -31.2892     0.0000     1.0000 </r>
       <r>   -31.1627     0.0000     1.0000 </r>
       <r>   -31.0361     0.0000     1.0000 </r>
       <r>   -30.9096     0.0000     1.0000 </r>
       <r>   -30.7830     0.0000     1.0000 </r>
       <r>   -30.6565     0.0000     1.0000 </r>
       <r>   -30.5299     0.0000     1.0000 </r>
       <r>   -30.4033     0.0000     1.0000 </r>
       <r>   -30.2768     0.0000     1.0000 </r>
       <r>   -30.1502     0.0000     1.0000 </r>
       <r>   -30.0237     0.0000     1.0000 </r>
       <r>   -29.8971     0.0000     1.0000 </r>
       <r>   -29.7705     0.0000     1.0000 </r>
       <r>   -29.6440     0.0000     1.0000 </r>
       <r>   -29.5174     0.0000     1.0000 </r>
       <r>   -29.3909     0.0000     1.0000 </r>
       <r>   -29.2643     0.0000     1.0000 </r>
       <r>   -29.1377     0.0000     1.0000 </r>
       <r>   -29.0112     0.0000     1.0000 </r>
       <r>   -28.8846     0.0000     1.0000 </r>
       <r>   -28.7581     0.0000     1.0000 </r>
       <r>   -28.6315     0.0000     1.0000 </r>
       <r>   -28.5049     0.0000     1.0000 </r>
       <r>   -28.3784     0.0000     1.0000 </r>
       <r>   -28.2518     0.0000     1.0000 </r>
       <r>   -28.1253     0.0000     1.0000 </r>
       <r>   -27.9987     0.0000     1.0000 </r>
       <r>   -27.8721     0.0000     1.0000 </r>
       <r>   -27.7456     0.0000     1.0000 </r>
       <r>   -27.6190     0.0000     1.0000 </r>
       <r>   -27.4925     0.0000     1.0000 </r>
       <r>   -27.3659     0.0000     1.0000 </r>
       <r>   -27.2393     0.0000     1.0000 </r>
       <r>   -27.1128     0.0000     1.0000 </r>
       <r>   -26.9862     0.0000     1.0000 </r>
       <r>   -26.8597     0.0000     1.0000 </r>
       <r>   -26.7331     0.0000     1.0000 </r>
       <r>   -26.6065     0.0000     1.0000 </r>
       <r>   -26.4800     0.0000     1.0000 </r>
       <r>   -26.3534     0.0000     1.0000 </r>
       <r>   -26.2269     0.0000     1.0000 </r>
       <r>   -26.1003     0.0000     1.0000 </r>
       <r>   -25.9737     0.0000     1.0000 </r>
       <r>   -25.8472     0.0000     1.0000 </r>
       <r>   -25.7206     0.0000     1.0000 </r>
       <r>   -25.5941     0.0000     1.0000 </r>
       <r>   -25.4675     0.0000     1.0000 </r>
       <r>   -25.3410     0.0000     1.0000 </r>
       <r>   -25.2144     0.0000     1.0000 </r>
       <r>   -25.0878     0.0000     1.0000 </r>
       <r>   -24.9613     0.0000     1.0000 </r>
       <r>   -24.8347     0.0000     1.0000 </r>
       <r>   -24.7082     0.0000     1.0000 </r>
       <r>   -24.5816     0.0000     1.0000 </r>
       <r>   -24.4550     0.0000     1.0000 </r>
       <r>   -24.3285     0.0000     1.0000 </r>
       <r>   -24.2019     0.0000     1.0000 </r>
       <r>   -24.0754     0.0000     1.0000 </r>
       <r>   -23.9488     0.0000     1.0000 </r>
       <r>   -23.8222     0.0000     1.0000 </r>
       <r>   -23.6957     0.0000     1.0000 </r>
       <r>   -23.5691     0.0000     1.0000 </r>
       <r>   -23.4426     0.0000     1.0000 </r>
       <r>   -23.3160     0.0000     1.0000 </r>
       <r>   -23.1894     0.0000     1.0000 </r>
       <r>   -23.0629     0.0000     1.0000 </r>
       <r>   -22.9363     0.0000     1.0000 </r>
       <r>   -22.8098     0.0000     1.0000 </r>
       <r>   -22.6832     0.0000     1.0000 </r>
       <r>   -22.5566     0.0000     1.0000 </r>
       <r>   -22.4301     0.0000     1.0000 </r>
       <r>   -22.3035     0.0000     1.0000 </r>
       <r>   -22.1770     0.0000     1.0000 </r>
       <r>   -22.0504     0.0000     1.0000 </r>
       <r>   -21.9238     0.0000     1.0000 </r>
       <r>   -21.7973     0.0000     1.0000 </r>
       <r>   -21.6707     0.0000     1.0000 </r>
       <r>   -21.5442     0.0000     1.0000 </r>
       <r>   -21.4176     0.0000     1.0000 </r>
       <r>   -21.2910     0.0000     1.0000 </r>
       <r>   -21.1645     0.0000     1.0000 </r>
       <r>   -21.0379     0.0000     1.0000 </r>
       <r>   -20.9114     0.0000     1.0000 </r>
       <r>   -20.7848     0.0000     1.0000 </r>
       <r>   -20.6582     0.0000     1.0000 </r>
       <r>   -20.5317     0.0000     1.0000 </r>
       <r>   -20.4051     7.9014     2.0000 </r>
       <r>   -20.2786     0.0000     2.0000 </r>
       <r>   -20.1520     0.0000     2.0000 </r>
       <r>   -20.0254     0.0000     2.0000 </r>
       <r>   -19.8989     0.0000     2.0000 </r>
       <r>   -19.7723     0.0000     2.0000 </r>
       <r>   -19.6458     0.0000     2.0000 </r>
       <r>   -19.5192     0.0000     2.0000 </r>
       <r>   -19.3927     0.0000     2.0000 </r>
       <r>   -19.2661     0.0000     2.0000 </r>
       <r>   -19.1395     0.0000     2.0000 </r>
       <r>   -19.0130     0.0000     2.0000 </r>
       <r>   -18.8864     0.0000     2.0000 </r>
       <r>   -18.7599     0.0000     2.0000 </r>
       <r>   -18.6333     0.0000     2.0000 </r>
       <r>   -18.5067     0.0000     2.0000 </r>
       <r>   -18.3802     0.0000     2.0000 </r>
       <r>   -18.2536     0.0000     2.0000 </r>
       <r>   -18.1271     0.0000     2.0000 </r>
       <r>   -18.0005     0.0000     2.0000 </r>
       <r>   -17.8739     0.0000     2.0000 </r>
       <r>   -17.7474     0.0000     2.0000 </r>
       <r>   -17.6208     0.0000     2.0000 </r>
       <r>   -17.4943     0.0000     2.0000 </r>
       <r>   -17.3677     0.0000     2.0000 </r>
       <r>   -17.2411     0.0000     2.0000 </r>
       <r>   -17.1146     0.0000     2.0000 </r>
       <r>   -16.9880     0.0000     2.0000 </r>
       <r>   -16.8615     0.0000     2.0000 </r>
       <r>   -16.7349     0.0000     2.0000 </r>
       <r>   -16.6083     0.0000     2.0000 </r>
       <r>   -16.4818     0.0000     2.0000 </r>
       <r>   -16.3552     0.0000     2.0000 </r>
       <r>   -16.2287     0.0000     2.0000 </r>
       <r>   -16.1021     0.0000     2.0000 </r>
       <r>   -15.9755     0.0000     2.0000 </r>
       <r>   -15.8490     0.0000     2.0000 </r>
       <r>   -15.7224     0.0000     2.0000 </r>
       <r>   -15.5959     0.0000     2.0000 </r>
       <r>   -15.4693     0.0000     2.0000 </r>
       <r>   -15.3427     0.0000     2.0000 </r>
       <r>   -15.2162     0.0000     2.0000 </r>
       <r>   -15.0896     0.0000     2.0000 </r>
       <r>   -14.9631     0.0000     2.0000 </r>
       <r>   -14.8365     0.0000     2.0000 </r>
       <r>   -14.7099     0.0000     2.0000 </r>
       <r>   -14.5834     0.0000     2.0000 </r>
       <r>   -14.4568     0.0000     2.0000 </r>
       <r>   -14.3303     0.0000     2.0000 </r>
       <r>   -14.2037     0.0000     2.0000 </r>
       <r>   -14.0771     0.0000     2.0000 </r>
       <r>   -13.9506     0.0000     2.0000 </r>
       <r>   -13.8240     0.0000     2.0000 </r>
       <r>   -13.6975     0.0000     2.0000 </r>
       <r>   -13.5709     0.0000     2.0000 </r>
       <r>   -13.4444     0.0000     2.0000 </r>
       <r>   -13.3178     0.0000     2.0000 </r>
       <r>   -13.1912     7.9014     3.0000 </r>
       <r>   -13.0647    15.7839     4.9976 </r>
       <r>   -12.9381     0.0000     5.0000 </r>
       <r>   -12.8116     0.0000     5.0000 </r>
       <r>   -12.6850     0.0000     5.0000 </r>
       <r>   -12.5584     0.0000     5.0000 </r>
       <r>   -12.4319     0.0000     5.0000 </r>
       <r>   -12.3053     0.0000     5.0000 </r>
       <r>   -12.1788     0.0000     5.0000 </r>
       <r>   -12.0522     0.0000     5.0000 </r>
       <r>   -11.9256     0.0000     5.0000 </r>
       <r>   -11.7991     0.0000     5.0000 </r>
       <r>   -11.6725     0.0000     5.0000 </r>
       <r>   -11.5460     0.0000     5.0000 </r>
       <r>   -11.4194     0.0000     5.0000 </r>
       <r>   -11.2928     0.0000     5.0000 </r>
       <r>   -11.1663     0.0000     5.0000 </r>
       <r>   -11.0397     0.0000     5.0000 </r>
       <r>   -10.9132     0.0000     5.0000 </r>
       <r>   -10.7866     0.0000     5.0000 </r>
       <r>   -10.6600     0.0000     5.0000 </r>
       <r>   -10.5335     0.0000     5.0000 </r>
       <r>   -10.4069     0.0000     5.0000 </r>
       <r>   -10.2804     0.0000     5.0000 </r>
       <r>   -10.1538     0.0000     5.0000 </r>
       <r>   -10.0272     0.0000     5.0000 </r>
       <r>    -9.9007     0.0000     5.0000 </r>
       <r>    -9.7741     0.0000     5.0000 </r>
       <r>    -9.6476     0.0000     5.0000 </r>
       <r>    -9.5210     0.0000     5.0000 </r>
       <r>    -9.3944     0.0000     5.0000 </r>
       <r>    -9.2679     0.0000     5.0000 </r>
       <r>    -9.1413     0.0000     5.0000 </r>
       <r>    -9.0148     0.0000     5.0000 </r>
       <r>    -8.8882     0.0000     5.0000 </r>
       <r>    -8.7616     0.0000     5.0000 </r>
       <r>    -8.6351     0.0000     5.0000 </r>
       <r>    -8.5085     0.0000     5.0000 </r>
       <r>    -8.3820     0.0000     5.0000 </r>
       <r>    -8.2554     0.0000     5.0000 </r>
       <r>    -8.1288     0.0000     5.0000 </r>
       <r>    -8.0023     0.0000     5.0000 </r>
       <r>    -7.8757     0.0000     5.0000 </r>
       <r>    -7.7492     0.0000     5.0000 </r>
       <r>    -7.6226     0.0000     5.0000 </r>
       <r>    -7.4961     0.0000     5.0000 </r>
       <r>    -7.3695     0.0000     5.0000 </r>
       <r>    -7.2429     0.0000     5.0000 </r>
       <r>    -7.1164     0.0000     5.0000 </r>
       <r>    -6.9898     0.0000     5.0000 </r>
       <r>    -6.8633     0.0000     5.0000 </r>
       <r>    -6.7367    15.8022     6.9999 </r>
       <r>    -6.6101     0.0000     7.0000 </r>
       <r>    -6.4836     0.0000     7.0000 </r>
       <r>    -6.3570     0.0000     7.0000 </r>
       <r>    -6.2305     0.0000     7.0000 </r>
       <r>    -6.1039     0.0000     7.0000 </r>
       <r>    -5.9773     0.0000     7.0000 </r>
       <r>    -5.8508     0.0000     7.0000 </r>
       <r>    -5.7242     0.0000     7.0000 </r>
       <r>    -5.5977     0.0000     7.0000 </r>
       <r>    -5.4711     0.0000     7.0000 </r>
       <r>    -5.3445     0.0000     7.0000 </r>
       <r>    -5.2180     0.0000     7.0000 </r>
       <r>    -5.0914     0.0000     7.0000 </r>
       <r>    -4.9649     0.0000     7.0000 </r>
       <r>    -4.8383     0.0000     7.0000 </r>
       <r>    -4.7117     0.0000     7.0000 </r>
       <r>    -4.5852     0.0000     7.0000 </r>
       <r>    -4.4586     0.0000     7.0000 </r>
       <r>    -4.3321     0.0000     7.0000 </r>
       <r>    -4.2055     0.0000     7.0000 </r>
       <r>    -4.0789     0.0000     7.0000 </r>
       <r>    -3.9524     0.0000     7.0000 </r>
       <r>    -3.8258     0.0000     7.0000 </r>
       <r>    -3.6993     0.0000     7.0000 </r>
       <r>    -3.5727     0.0000     7.0000 </r>
       <r>    -3.4461     0.0000     7.0000 </r>
       <r>    -3.3196     0.0000     7.0000 </r>
       <r>    -3.1930     0.0000     7.0000 </r>
       <r>    -3.0665     0.0000     7.0000 </r>
       <r>    -2.9399     0.0000     7.0000 </r>
       <r>    -2.8133     0.0000     7.0000 </r>
       <r>    -2.6868     0.0000     7.0000 </r>
       <r>    -2.5602     0.0000     7.0000 </r>
       <r>    -2.4337     0.0000     7.0000 </r>
       <r>    -2.3071     0.0000     7.0000 </r>
       <r>    -2.1805     0.0000     7.0000 </r>
       <r>    -2.0540     0.0000     7.0000 </r>
       <r>    -1.9274     0.0000     7.0000 </r>
       <r>    -1.8009     0.0000     7.0000 </r>
       <r>    -1.6743     0.0000     7.0000 </r>
       <r>    -1.5478     0.0000     7.0000 </r>
       <r>    -1.4212     0.0000     7.0000 </r>
       <r>    -1.2946     0.0000     7.0000 </r>
       <r>    -1.1681     0.0000     7.0000 </r>
       <r>    -1.0415     0.0000     7.0000 </r>
       <r>    -0.9150     0.0000     7.0000 </r>
       <r>    -0.7884     0.0000     7.0000 </r>
       <r>    -0.6618     0.0000     7.0000 </r>
       <r>    -0.5353     0.0000     7.0000 </r>
       <r>    -0.4087     2.3523     7.2977 </r>
       <r>    -0.2822     0.0000     8.0000 </r>
       <r>    -0.1556     0.0000     8.0000 </r>
       <r>    -0.0290     0.0000     8.0000 </r>
       <r>     0.0975     0.0000     8.0000 </r>
       <r>     0.2241     0.0000     8.0000 </r>
       <r>     0.3506     0.0000     8.0000 </r>
       <r>     0.4772     0.0000     8.0000 </r>
       <r>     0.6038     0.0000     8.0000 </r>
       <r>     0.7303     0.0000     8.0000 </r>
       <r>     0.8569     0.0000     8.0000 </r>
       <r>     0.9834     0.0001     8.0000 </r>
       <r>     1.1100     0.0000     9.0000 </r>
       <r>     1.2366     0.0000     9.0000 </r>
       <r>     1.3631     0.0000     9.0000 </r>
       <r>     1.4897     0.0000     9.0000 </r>
       <r>     1.6162     7.9014    10.0000 </r>
       <r>     1.7428     0.0182    10.0023 </r>
       <r>     1.8694     0.0000    11.0000 </r>
       <r>     1.9959     0.0000    11.0000 </r>
       <r>     2.1225     0.0000    12.0000 </r>
       <r>     2.2490     0.0000    12.0000 </r>
       <r>     2.3756     0.0000    12.0000 </r>
       <r>     2.5022     0.0000    12.0000 </r>
       <r>     2.6287     0.0000    12.0000 </r>
       <r>     2.7553     0.0000    12.0000 </r>
       <r>     2.8818     0.0000    12.0000 </r>
       <r>     3.0084     0.0000    12.0000 </r>
       <r>     3.1350     0.0000    12.0000 </r>
       <r>     3.2615     0.0000    12.0000 </r>
       <r>     3.3881     0.0000    12.0000 </r>
       <r>     3.5146     0.0000    12.0000 </r>
       <r>     3.6412     0.0000    12.0000 </r>
       <r>     3.7677     0.0000    12.0000 </r>
       <r>     3.8943     0.0000    12.0000 </r>
      </set>
      <set comment="spin 2">
       <r>   -34.0736     0.0000     0.0000 </r>
       <r>   -33.9470     0.0000     0.0000 </r>
       <r>   -33.8204     0.0000     0.0000 </r>
       <r>   -33.6939     0.0000     0.0000 </r>
       <r>   -33.5673     0.0000     0.0000 </r>
       <r>   -33.4408     0.0000     0.0000 </r>
       <r>   -33.3142     0.0000     0.0000 </r>
       <r>   -33.1876     0.0000     0.0000 </r>
       <r>   -33.0611     0.0000     0.0000 </r>
       <r>   -32.9345     0.0000     0.0000 </r>
       <r>   -32.8080     0.0000     0.0000 </r>
       <r>   -32.6814     0.0000     0.0000 </r>
       <r>   -32.5548     0.0000     0.0000 </r>
       <r>   -32.4283     0.0000     0.0000 </r>
       <r>   -32.3017     0.0000     0.0000 </r>
       <r>   -32.1752     0.0000     0.0000 </r>
       <r>   -32.0486     0.0000     0.0000 </r>
       <r>   -31.9220     0.0000     0.0000 </r>
       <r>   -31.7955     0.0000     0.0000 </r>
       <r>   -31.6689     0.0000     0.0000 </r>
       <r>   -31.5424     0.0000     0.0000 </r>
       <r>   -31.4158     0.0000     0.0000 </r>
       <r>   -31.2892     0.0000     0.0000 </r>
       <r>   -31.1627     0.0000     0.0000 </r>
       <r>   -31.0361     0.0000     1.0000 </r>
       <r>   -30.9096     0.0000     1.0000 </r>
       <r>   -30.7830     0.0000     1.0000 </r>
       <r>   -30.6565     0.0000     1.0000 </r>
       <r>   -30.5299     0.0000     1.0000 </r>
       <r>   -30.4033     0.0000     1.0000 </r>
       <r>   -30.2768     0.0000     1.0000 </r>
       <r>   -30.1502     0.0000     1.0000 </r>
       <r>   -30.0237     0.0000     1.0000 </r>
       <r>   -29.8971     0.0000     1.0000 </r>
       <r>   -29.7705     0.0000     1.0000 </r>
       <r>   -29.6440     0.0000     1.0000 </r>
       <r>   -29.5174     0.0000     1.0000 </r>
       <r>   -29.3909     0.0000     1.0000 </r>
       <r>   -29.2643     0.0000     1.0000 </r>
       <r>   -29.1377     0.0000     1.0000 </r>
       <r>   -29.0112     0.0000     1.0000 </r>
       <r>   -28.8846     0.0000     1.0000 </r>
       <r>   -28.7581     0.0000     1.0000 </r>
       <r>   -28.6315     0.0000     1.0000 </r>
       <r>   -28.5049     0.0000     1.0000 </r>
       <r>   -28.3784     0.0000     1.0000 </r>
       <r>   -28.2518     0.0000     1.0000 </r>
       <r>   -28.1253     0.0000     1.0000 </r>
       <r>   -27.9987     0.0000     1.0000 </r>
       <r>   -27.8721     0.0000     1.0000 </r>
       <r>   -27.7456     0.0000     1.0000 </r>
       <r>   -27.6190     0.0000     1.0000 </r>
       <r>   -27.4925     0.0000     1.0000 </r>
       <r>   -27.3659     0.0000     1.0000 </r>
       <r>   -27.2393     0.0000     1.0000 </r>
       <r>   -27.1128     0.0000     1.0000 </r>
       <r>   -26.9862     0.0000     1.0000 </r>
       <r>   -26.8597     0.0000     1.0000 </r>
       <r>   -26.7331     0.0000     1.0000 </r>
       <r>   -26.6065     0.0000     1.0000 </r>
       <r>   -26.4800     0.0000     1.0000 </r>
       <r>   -26.3534     0.0000     1.0000 </r>
       <r>   -26.2269     0.0000     1.0000 </r>
       <r>   -26.1003     0.0000     1.0000 </r>
       <r>   -25.9737     0.0000     1.0000 </r>
       <r>   -25.8472     0.0000     1.0000 </r>
       <r>   -25.7206     0.0000     1.0000 </r>
       <r>   -25.5941     0.0000     1.0000 </r>
       <r>   -25.4675     0.0000     1.0000 </r>
       <r>   -25.3410     0.0000     1.0000 </r>
       <r>   -25.2144     0.0000     1.0000 </r>
       <r>   -25.0878     0.0000     1.0000 </r>
       <r>   -24.9613     0.0000     1.0000 </r>
       <r>   -24.8347     0.0000     1.0000 </r>
       <r>   -24.7082     0.0000     1.0000 </r>
       <r>   -24.5816     0.0000     1.0000 </r>
       <r>   -24.4550     0.0000     1.0000 </r>
       <r>   -24.3285     0.0000     1.0000 </r>
       <r>   -24.2019     0.0000     1.0000 </r>
       <r>   -24.0754     0.0000     1.0000 </r>
       <r>   -23.9488     0.0000     1.0000 </r>
       <r>   -23.8222     0.0000     1.0000 </r>
       <r>   -23.6957     0.0000     1.0000 </r>
       <r>   -23.5691     0.0000     1.0000 </r>
       <r>   -23.4426     0.0000     1.0000 </r>
       <r>   -23.3160     0.0000     1.0000 </r>
       <r>   -23.1894     0.0000     1.0000 </r>
       <r>   -23.0629     0.0000     1.0000 </r>
       <r>   -22.9363     0.0000     1.0000 </r>
       <r>   -22.8098     0.0000     1.0000 </r>
       <r>   -22.6832     0.0000     1.0000 </r>
       <r>   -22.5566     0.0000     1.0000 </r>
       <r>   -22.4301     0.0000     1.0000 </r>
       <r>   -22.3035     0.0000     1.0000 </r>
       <r>   -22.1770     0.0000     1.0000 </r>
       <r>   -22.0504     0.0000     1.0000 </r>
       <r>   -21.9238     0.0000     1.0000 </r>
       <r>   -21.7973     0.0000     1.0000 </r>
       <r>   -21.6707     0.0000     1.0000 </r>
       <r>   -21.5442     0.0000     1.0000 </r>
       <r>   -21.4176     0.0000     1.0000 </r>
       <r>   -21.2910     0.0000     1.0000 </r>
       <r>   -21.1645     0.0000     1.0000 </r>
       <r>   -21.0379     0.0000     1.0000 </r>
       <r>   -20.9114     0.0000     1.0000 </r>
       <r>   -20.7848     0.0000     1.0000 </r>
       <r>   -20.6582     0.0000     1.0000 </r>
       <r>   -20.5317     0.0000     1.0000 </r>
       <r>   -20.4051     0.0000     1.0000 </r>
       <r>   -20.2786     0.0000     1.0000 </r>
       <r>   -20.1520     0.0000     1.0000 </r>
       <r>   -20.0254     0.0000     1.0000 </r>
       <r>   -19.8989     0.0000     1.0000 </r>
       <r>   -19.7723     0.0000     1.0000 </r>
       <r>   -19.6458     0.0000     1.0000 </r>
       <r>   -19.5192     0.0000     1.0000 </r>
       <r>   -19.3927     0.0000     1.0000 </r>
       <r>   -19.2661     0.0000     1.0000 </r>
       <r>   -19.1395     0.0000     1.0000 </r>
       <r>   -19.0130     0.0000     1.0000 </r>
       <r>   -18.8864     0.0000     1.0000 </r>
       <r>   -18.7599     0.0000     1.0000 </r>
       <r>   -18.6333     7.9014     2.0000 </r>
       <r>   -18.5067     0.0000     2.0000 </r>
       <r>   -18.3802     0.0000     2.0000 </r>
       <r>   -18.2536     0.0000     2.0000 </r>
       <r>   -18.1271     0.0000     2.0000 </r>
       <r>   -18.0005     0.0000     2.0000 </r>
       <r>   -17.8739     0.0000     2.0000 </r>
       <r>   -17.7474     0.0000     2.0000 </r>
       <r>   -17.6208     0.0000     2.0000 </r>
       <r>   -17.4943     0.0000     2.0000 </r>
       <r>   -17.3677     0.0000     2.0000 </r>
       <r>   -17.2411     0.0000     2.0000 </r>
       <r>   -17.1146     0.0000     2.0000 </r>
       <r>   -16.9880     0.0000     2.0000 </r>
       <r>   -16.8615     0.0000     2.0000 </r>
       <r>   -16.7349     0.0000     2.0000 </r>
       <r>   -16.6083     0.0000     2.0000 </r>
       <r>   -16.4818     0.0000     2.0000 </r>
       <r>   -16.3552     0.0000     2.0000 </r>
       <r>   -16.2287     0.0000     2.0000 </r>
       <r>   -16.1021     0.0000     2.0000 </r>
       <r>   -15.9755     0.0000     2.0000 </r>
       <r>   -15.8490     0.0000     2.0000 </r>
       <r>   -15.7224     0.0000     2.0000 </r>
       <r>   -15.5959     0.0000     2.0000 </r>
       <r>   -15.4693     0.0000     2.0000 </r>
       <r>   -15.3427     0.0000     2.0000 </r>
       <r>   -15.2162     0.0000     2.0000 </r>
       <r>   -15.0896     0.0000     2.0000 </r>
       <r>   -14.9631     0.0000     2.0000 </r>
       <r>   -14.8365     0.0000     2.0000 </r>
       <r>   -14.7099     0.0000     2.0000 </r>
       <r>   -14.5834     0.0000     2.0000 </r>
       <r>   -14.4568     0.0000     2.0000 </r>
       <r>   -14.3303     0.0000     2.0000 </r>
       <r>   -14.2037     0.0000     2.0000 </r>
       <r>   -14.0771     0.0000     2.0000 </r>
       <r>   -13.9506     0.0000     2.0000 </r>
       <r>   -13.8240     0.0000     2.0000 </r>
       <r>   -13.6975     0.0000     2.0000 </r>
       <r>   -13.5709     0.0000     2.0000 </r>
       <r>   -13.4444     0.0000     2.0000 </r>
       <r>   -13.3178     0.0000     2.0000 </r>
       <r>   -13.1912     0.0000     2.0000 </r>
       <r>   -13.0647     0.0000     2.0000 </r>
       <r>   -12.9381     0.0000     2.0000 </r>
       <r>   -12.8116     0.0000     2.0000 </r>
       <r>   -12.6850     0.0000     2.0000 </r>
       <r>   -12.5584     0.0000     2.0000 </r>
       <r>   -12.4319     0.0000     2.0000 </r>
       <r>   -12.3053     5.4827     2.6939 </r>
       <r>   -12.1788     0.0000     3.0000 </r>
       <r>   -12.0522     0.0000     3.0000 </r>
       <r>   -11.9256     0.0000     3.0000 </r>
       <r>   -11.7991     0.0000     3.0000 </r>
       <r>   -11.6725     0.0000     3.0000 </r>
       <r>   -11.5460     0.0000     3.0000 </r>
       <r>   -11.4194     0.0000     3.0000 </r>
       <r>   -11.2928     0.0000     3.0000 </r>
       <r>   -11.1663    15.8028     5.0000 </r>
       <r>   -11.0397     0.0000     5.0000 </r>
       <r>   -10.9132     0.0000     5.0000 </r>
       <r>   -10.7866     0.0000     5.0000 </r>
       <r>   -10.6600     0.0000     5.0000 </r>
       <r>   -10.5335     0.0000     5.0000 </r>
       <r>   -10.4069     0.0000     5.0000 </r>
       <r>   -10.2804     0.0000     5.0000 </r>
       <r>   -10.1538     0.0000     5.0000 </r>
       <r>   -10.0272     0.0000     5.0000 </r>
       <r>    -9.9007     0.0000     5.0000 </r>
       <r>    -9.7741     0.0000     5.0000 </r>
       <r>    -9.6476     0.0000     5.0000 </r>
       <r>    -9.5210     0.0000     5.0000 </r>
       <r>    -9.3944     0.0000     5.0000 </r>
       <r>    -9.2679     0.0000     5.0000 </r>
       <r>    -9.1413     0.0000     5.0000 </r>
       <r>    -9.0148     0.0000     5.0000 </r>
       <r>    -8.8882     0.0000     5.0000 </r>
       <r>    -8.7616     0.0000     5.0000 </r>
       <r>    -8.6351     0.0000     5.0000 </r>
       <r>    -8.5085     0.0000     5.0000 </r>
       <r>    -8.3820     0.0000     5.0000 </r>
       <r>    -8.2554     0.0000     5.0000 </r>
       <r>    -8.1288     0.0000     5.0000 </r>
       <r>    -8.0023     0.0000     5.0000 </r>
       <r>    -7.8757     0.0000     5.0000 </r>
       <r>    -7.7492     0.0000     5.0000 </r>
       <r>    -7.6226     0.0000     5.0000 </r>
       <r>    -7.4961     0.0000     5.0000 </r>
       <r>    -7.3695     0.0000     5.0000 </r>
       <r>    -7.2429     0.0000     5.0000 </r>
       <r>    -7.1164     0.0000     5.0000 </r>
       <r>    -6.9898     0.0000     5.0000 </r>
       <r>    -6.8633     0.0000     5.0000 </r>
       <r>    -6.7367     0.0000     5.0000 </r>
       <r>    -6.6101     0.0000     5.0000 </r>
       <r>    -6.4836     0.0000     5.0000 </r>
       <r>    -6.3570     0.0000     5.0000 </r>
       <r>    -6.2305     0.0000     5.0000 </r>
       <r>    -6.1039     0.0000     5.0000 </r>
       <r>    -5.9773     0.0000     5.0000 </r>
       <r>    -5.8508     0.0000     5.0000 </r>
       <r>    -5.7242     0.0000     5.0000 </r>
       <r>    -5.5977     0.0000     5.0000 </r>
       <r>    -5.4711     0.0000     5.0000 </r>
       <r>    -5.3445     0.0000     5.0000 </r>
       <r>    -5.2180     0.0000     5.0000 </r>
       <r>    -5.0914     0.0000     5.0000 </r>
       <r>    -4.9649     0.0000     5.0000 </r>
       <r>    -4.8383     0.0000     5.0000 </r>
       <r>    -4.7117     0.0000     5.0000 </r>
       <r>    -4.5852     0.0000     5.0000 </r>
       <r>    -4.4586    15.8028     7.0000 </r>
       <r>    -4.3321     0.0000     7.0000 </r>
       <r>    -4.2055     0.0000     7.0000 </r>
       <r>    -4.0789     0.0000     7.0000 </r>
       <r>    -3.9524     0.0000     7.0000 </r>
       <r>    -3.8258     0.0000     7.0000 </r>
       <r>    -3.6993     0.0000     7.0000 </r>
       <r>    -3.5727     0.0000     7.0000 </r>
       <r>    -3.4461     0.0000     7.0000 </r>
       <r>    -3.3196     0.0000     7.0000 </r>
       <r>    -3.1930     0.0000     7.0000 </r>
       <r>    -3.0665     0.0000     7.0000 </r>
       <r>    -2.9399     0.0000     7.0000 </r>
       <r>    -2.8133     0.0000     7.0000 </r>
       <r>    -2.6868     0.0000     7.0000 </r>
       <r>    -2.5602     0.0000     7.0000 </r>
       <r>    -2.4337     0.0000     7.0000 </r>
       <r>    -2.3071     0.0000     7.0000 </r>
       <r>    -2.1805     0.0000     7.0000 </r>
       <r>    -2.0540     0.0000     7.0000 </r>
       <r>    -1.9274     0.0000     7.0000 </r>
       <r>    -1.8009     0.0000     7.0000 </r>
       <r>    -1.6743     0.0000     7.0000 </r>
       <r>    -1.5478     0.0000     7.0000 </r>
       <r>    -1.4212     0.0000     7.0000 </r>
       <r>    -1.2946     0.0000     7.0000 </r>
       <r>    -1.1681     0.0000     7.0000 </r>
       <r>    -1.0415     0.0000     7.0000 </r>
       <r>    -0.9150     0.0000     7.0000 </r>
       <r>    -0.7884     0.0000     7.0000 </r>
       <r>    -0.6618     0.0000     7.0000 </r>
       <r>    -0.5353     0.0000     7.0000 </r>
       <r>    -0.4087     0.0000     7.0000 </r>
       <r>    -0.2822     0.0000     7.0000 </r>
       <r>    -0.1556     7.9014     8.0000 </r>
       <r>    -0.0290     0.0000     8.0000 </r>
       <r>     0.0975     0.0000     8.0000 </r>
       <r>     0.2241     0.0000     8.0000 </r>
       <r>     0.3506     0.0000     8.0000 </r>
       <r>     0.4772     0.0000     8.0000 </r>
       <r>     0.6038     0.0000     8.0000 </r>
       <r>     0.7303     0.0000     8.0000 </r>
       <r>     0.8569     0.0000     8.0000 </r>
       <r>     0.9834     0.0000     8.0000 </r>
       <r>     1.1100     0.0000     8.0000 </r>
       <r>     1.2366     0.0000     8.0000 </r>
       <r>     1.3631     1.1582     8.1466 </r>
       <r>     1.4897     0.0000     9.0000 </r>
       <r>     1.6162     0.0000     9.0000 </r>
       <r>     1.7428     5.8760     9.7437 </r>
       <r>     1.8694     0.0000    10.0000 </r>
       <r>     1.9959     7.8989    10.9997 </r>
       <r>     2.1225     0.0000    11.0000 </r>
       <r>     2.2490     0.0000    12.0000 </r>
       <r>     2.3756     0.0000    12.0000 </r>
       <r>     2.5022     0.0000    12.0000 </r>
       <r>     2.6287     0.0000    12.0000 </r>
       <r>     2.7553     0.0000    12.0000 </r>
       <r>     2.8818     0.0000    12.0000 </r>
       <r>     3.0084     0.0000    12.0000 </r>
       <r>     3.1350     0.0000    12.0000 </r>
       <r>     3.2615     0.0000    12.0000 </r>
       <r>     3.3881     0.0000    12.0000 </r>
       <r>     3.5146     0.0000    12.0000 </r>
       <r>     3.6412     0.0000    12.0000 </r>
       <r>     3.7677     0.0000    12.0000 </r>
       <r>     3.8943     0.0000    12.0000 </r>
      </set>
     </set>
    </array>
   </total>
  </dos>
 </calculation>
 <structure name="finalpos" >
  <crystal>
   <varray name="basis" >
    <v>       7.50000000       0.00000000       0.00000000 </v>
    <v>       0.00000000       8.00000000       0.00000000 </v>
    <v>       0.00000000       0.00000000       8.90000000 </v>
   </varray>
   <i name="volume">    534.00000000 </i>
   <varray name="rec_basis" >
    <v>       0.13333333       0.00000000       0.00000000 </v>
    <v>       0.00000000       0.12500000       0.00000000 </v>
    <v>       0.00000000       0.00000000       0.11235955 </v>
   </varray>
  </crystal>
  <varray name="positions" >
   <v>       0.00000000       0.00000000       0.00205983 </v>
   <v>       0.00000000       0.00000000       0.14068174 </v>
  </varray>
 </structure>
</modeling>
