O ATOM                                  
           1
     7.500000    0.000000    0.000000
     0.000000    8.000000    0.000000
     0.000000    0.000000    8.900000
   O 
   2
Direct configuration=     1
   0.00000000  0.00000000  0.00000000
   0.00000000  0.00000000  0.14274157
Direct configuration=     2
   0.00000000  0.00000000  0.01235629
   0.00000000  0.00000000  0.13038528
Direct configuration=     3
   0.00000000  0.00000000  0.00096251
   0.00000000  0.00000000  0.14177906
Direct configuration=     4
   0.00000000  0.00000000  0.00147741
   0.00000000  0.00000000  0.14126416
Direct configuration=     5
   0.00000000  0.00000000  0.00205983
   0.00000000  0.00000000  0.14068174
